id,Composition,FormationEnergy
1,TlAgTe2,-0.04130647
2,Ac,0.012597523
3,Gd2AgRh,-0.524292652
4,EuAcAu2,-0.772733403
5,ZrAg2,-0.046823887
6,YbAg2,-0.338600167
7,AgC,2.237659356
8,RbAgO,-0.47402663
9,NaAgO,-0.767467509
10,MgAgSb,-0.233658935
11,AgC,2.257796476
12,InAg,0.033351505
13,KAgO,-0.602329634
14,AgN,1.538300399
15,AgN,1.532949019
16,CsAgC2,0.351342374
17,TiAg,-0.064920991
18,LiAg,-0.220867825
19,ScAg2,-0.30212525
20,LuAg2,-0.342223253
21,LaAg2,-0.303525261
22,RbAg3Se2,-0.429068982
23,Ag,0.011747485
24,AgSnF6,-2.287166275
25,TiAgF6,-2.858417947
26,NdAgAs2,-0.767997149
27,DyAgSb2,-0.613118149
28,GaAgO2,-1.597251788
29,YbAgSn,-0.576346572
30,Ac2O3,-3.760401578
31,CaAgSb,-0.702465676
32,PrMg2Ag,-0.127946045
33,SmMg2Ag,-0.11336461
34,ScAg,-0.27875396
35,ZrAg,-0.122969242
36,GaAg,0.049093848
37,BaAg,-0.281658079
38,CeAg,-0.06770289
39,Ag2O3,-0.205411181
40,LiAlAg2,-0.249576735
41,AgBF4,-2.597442068
42,AgB2,0.523627936
43,Ce(AgGe)2,-0.376133176
44,Ag3Pt,0.014294795
45,CaAgP,-0.765564668
46,NdAg,-0.259348942
47,AgSbTe2,-0.088096887
48,Ag,0
49,BaAg2,-0.296188878
50,Ag3PS4,-0.515546827
51,LuAgSn,-0.519345932
52,Ba3Ag2,-0.22478442
53,Be12Ag,0.100494216
54,NbAgO3,-2.164029907
55,KAg2,-0.014424186
56,AgO,-0.41202687
57,ErAgTe2,-0.899370889
58,YAgTe2,-0.927968294
59,Hf2Ag,-0.122014727
60,HfAg,-0.119732312
61,YbAgO2,-1.935501876
62,ErAgSn,-0.555344904
63,CaAg2,-0.302807603
64,CeAgPb,-0.335852867
65,Cs2AgF4,-2.364588215
66,KAgF3,-2.137765226
67,Ag2F,-0.866617905
68,Ba(AgGe)2,-0.335777058
69,AlAgSe2,-0.621158378
70,AlAgTe2,-0.359430665
71,K3Ag3As2,-0.369070261
72,EuAg2,-0.31303776
73,AgSb2F12,-2.410188143
74,Ag6Ge2O7,-1.033434949
75,Ag2Te,-0.063849539
76,Ag3O4,-0.418748881
77,AgAuF4,-1.419316519
78,Ag3Sb,0.022012029
79,ErAgPb,-0.356578058
80,LuAgPb,-0.301081321
81,Ca2Ag7,-0.241879118
82,Nb3AgO8,-2.673622974
83,NaAg3S2,-0.572623485
84,Ag3Ge5P6,-0.032753282
85,Ag2TeO3,-0.921838378
86,Ag(AuF4)2,-1.398076073
87,BaAg5,-0.16390109
88,HoAgS2,-1.659062832
89,AgF3,-1.33399502
90,KAg3S2,-0.611269953
91,RbAgSe4,-0.386699761
92,ZnAg,-0.03436557
93,Ni(AgO)2,-0.511935012
94,VAg3O4,-1.227069477
95,LaAg,-0.261737779
96,TiAg,0.100003079
97,PrAgPb,-0.470133677
98,GdAg2,-0.292612975
99,In2Ag,-0.03978833
100,Cr2AgTe4,-0.199966109
101,GdMg2Ag,-0.094488339
102,InAgS2,-0.680492877
103,Ag2PbO2,-0.834603336
104,CeAgAs2,-0.785259469
105,EuAgP,-0.760655229
106,DyInAg2,-0.374737307
107,DyAgGe,-0.418644296
108,DyAgSn,-0.596368695
109,HoAg2,-0.32880147
110,Gd(SiAg)2,-0.409975411
111,EuAgAs,-0.779904733
112,InAgS2,-0.768277651
113,YAgPb,-0.41075864
114,DyAg,-0.32984297
115,In4Ag9,-0.049242163
116,Zr2Ag,-0.109097207
117,Ag5(PbO3)2,-0.820318904
118,Th2Ag,-0.066304143
119,TbInAg2,-0.379029492
120,AgN3,0.339823058
121,Eu(SiAg)2,-0.346813497
122,YbAg,-0.419728465
123,TbAg,-0.322505888
124,EuAgSb,-0.733669988
125,Ag3Sb,0.070529893
126,AgF2,-1.446538979
127,AgI,-0.282711833
128,AgI,0.10421277
129,AgI,-0.19167997
130,AgCl,-0.724654642
131,AgI,-0.283698265
132,AgClO2,-0.386443811
133,AgClO4,-0.528106986
134,Ag3SI,-0.226097793
135,AgBr,-0.334546385
136,EuAgBi,-0.53662198
137,Rb2AgI3,-1.110225077
138,CsAgBr2,-1.096821584
139,Re(AgCl3)2,-0.933140627
140,Ag2HgI4,-0.301955677
141,CsAg2I3,-0.717872267
142,AgBiO3,-1.022497246
143,Ag2BiO3,-0.93496746
144,SrAg5,-0.186722798
145,AcH2,-0.664659382
146,LiAg,-0.208077055
147,YAg,-0.336419165
148,SmAg,-0.28343889
149,PrAg,-0.247108485
150,DyAg2,-0.325060497
151,ErAg,-0.339539825
152,CdAg,-0.04595823
153,MgAg,-0.251727638
154,Ba(Ag3O2)2,-0.843608072
155,AgIO3,-0.728609902
156,K2AgBi,-0.342580909
157,Ag3AuS2,-0.264878352
158,CeAg,-0.03966432
159,HoAg,-0.334331585
160,TlAgI2,-0.4526176
161,Ag3BO3,-1.16477089
162,Ag3O,-0.231730287
163,Ag3P11,-0.029981031
164,AgBiSe2,-0.269000566
165,AgClO3,-0.538808638
166,TlAgSe2,0.068777505
167,TmAg,-0.345267907
168,AcCl3,-2.929630014
169,AcBr3,-2.103585782
170,Tl3AgI5,-0.492323972
171,Ag7Te4,0.176316064
172,AgTe3,-0.013526718
173,Ta2AgF12,-3.182442112
174,Hf2Ag3F14,-2.875317304
175,Ag2PdCl4,-0.795450383
176,AgXeF9,-0.983354371
177,CsAgCl3,-1.445183499
178,Ag25(BiO6)3,-0.562278235
179,Ag8S,0.171854974
180,AgBi2F12,-2.034855876
181,Tl2AgI3,-0.5222135
182,Li3Si3Ag2,-0.036479619
183,Li3Ag2Ge3,-0.17292208
184,TlAgSe,-0.245402152
185,Ag5CF4,-0.854275482
186,Ca2Si3Ag,-0.460929523
187,Ag(TeMo)6,-0.211912866
188,FeAgTe2,0.172291957
189,RbAg5Se3,-0.307074525
190,Rb2AgCl3,-1.76397423
191,Ag(W3Br7)2,-0.472627597
192,Ag2HgO2,-0.467897846
193,Ag3SnP7,-0.05615445
194,TmAgSn,-0.538691853
195,TaAgF6,-3.07849924
196,Sc6AgTe2,-0.599683339
197,AcClO,-3.594246979
198,AcBrO,-3.235004796
199,BaAgBi,-0.295629587
200,ErAg2,-0.332551903
201,ErInAg2,-0.361857348
202,TiAgHg2,0.104480078
203,InAg3,-0.046760467
204,Li2InAg,-0.296884632
205,ScInAg2,-0.315669185
206,Li2AgPb,-0.271188598
207,Li2AgSn,-0.310637958
208,MgAg3,-0.156627864
209,NaAg2,-0.09895568
210,AgPt3,0.025985158
211,ScAg4,-0.197338646
212,SrAg,-0.323598302
213,SrAg2,-0.312084182
214,Sr3Ag2,-0.273614264
215,TbAg2,-0.318675776
216,TmAg2,-0.336452158
217,TmAg3,-0.118113746
218,Zn8Ag5,-0.046912112
219,Zr3Ag,0.024012115
220,YMgAg,-0.293494593
221,KAgO,-1.04888167
222,ThAg2,-0.17761321
223,Ag2S,-0.278228053
224,Li2AlAg,-0.24582116
225,ScAlAg2,-0.32713154
226,Cd2AgAu,-0.133143473
227,Zn2AgAu,-0.149578337
228,Ca5Ag3,-0.290310492
229,CeCd2Ag,-0.152794015
230,CeMg2Ag,-0.008425152
231,Nd(SiAg)2,-0.437772855
232,AgPdF6,-1.558448222
233,CeAgSn,-0.472091767
234,TbAgSn,-0.607209541
235,AgTe2Au,0.133948967
236,Mg32Al36Ag13,-0.077275998
237,Ag2S,-0.274510783
238,Ag2Se,-0.034068861
239,Ag2S,-0.190418836
240,Ac2S3,-2.570040228
241,Ag2Te,-0.02706816
242,Ag2S,-0.226869205
243,Ag2S,-0.273536071
244,AgTe4Au,-0.073618015
245,AgI2,-0.050953587
246,AgBiSe2,-0.227374111
247,AgSbSe2,-0.168288491
248,ErAgSe2,-1.162281258
249,AgPF6,-2.556906607
250,MgAgAs,-0.217431953
251,Ag3AuS2,-0.247509171
252,Na3AgO2,-1.282937931
253,Ag2O,-0.329487302
254,Dy5AgS8,-2.207794463
255,Ag(AuS)2,-0.230453532
256,AgBiI4,-0.380136167
257,ErAgS2,-1.634391672
258,LuAgSn,-0.508285843
259,Ag2S,-0.271580181
260,AcOF,-4.186407238
261,Nd5AgSe8,-1.684510217
262,Ag3SBr,-0.271962573
263,Ag2HgI4,-0.20055528
264,Nd5AgS8,-2.208671348
265,AgSe,0.085823991
266,AgAuS2,-0.27128862
267,NdSiAg,-0.53354909
268,Ag2O,-0.221494437
269,Ag2S,-0.237707403
270,Sm5AgSe8,-1.674085173
271,NbAg7S6,-0.514977344
272,ErAgSe2,-1.201387663
273,CrAgS2,-0.800676682
274,Nd(AgGe)2,-0.425137877
275,PrAgAs2,-0.77486098
276,HoAgSn,-0.582567647
277,AgAsSe2,-0.076088443
278,Tb(SiAg)2,-0.401783599
279,AgAsF7,-2.128706567
280,GaAgTe2,-0.288451701
281,AgO,-0.454490071
282,Ag3BiO3,-0.800281519
283,FeAgS2,-0.48977738
284,Rb2Ag4S3,-0.69864656
285,CeAgSb2,-0.662860414
286,Ag13OsO6,-0.466636162
287,Ag3RuO4,-0.725799421
288,Cs2AgF4,-2.37121822
289,AgBF5,-2.44231024
290,Tl4Ag18Te11,-0.133688299
291,Cu29(Ag6As7)2,0.039365569
292,GaAgS2,-0.843267683
293,CaAg,-0.340319065
294,Ag3AsO4,-0.980981559
295,AgSbO3,-1.440874082
296,Cs2AgI3,-1.156288052
297,Ag2F5,-1.408353672
298,EuAg5,-0.178323501
299,Fe2AgS3,-0.593576886
300,Na3In2Ag,-0.149601557
301,CsAgCl2,-1.519849489
302,GdAg,-0.315588957
303,AgSbO3,-1.446319651
304,Ag2O3,-0.370707461
305,AgPS3,-0.562481039
306,AgClO4,-0.411497656
307,GaAgSe2,-0.455656363
308,AgClO2,-0.247544525
309,NbAgO3,-2.196999741
310,Ag5IO6,-0.531533363
311,Ag2B8O13,-2.525631807
312,Ag2Ge2O5,-1.503341469
313,Ag5(PbO3)2,-0.820167383
314,Ag2S,-0.272851926
315,Mn3(AgO2)4,-1.234349708
316,Ag5GeO4,-0.831638419
317,GaAgS2,-0.84067508
318,NbAgO3,-2.161638371
319,Ag3SI,-0.176151981
320,AgTeO3,-1.142457776
321,Ag2BiO3,-0.930868535
322,Ag2TeO4,-0.981272817
323,AgTeO3,-1.162536641
324,AgBO2,-1.899046903
325,Ag2S,-0.195207563
326,Ag4GeO4,-0.909363376
327,Ce(SiAg)2,-0.394444762
328,CrAgS2,-0.692587732
329,Ag2BiO3,-0.933718508
330,TaAgS3,-1.063608038
331,AgTeO3,-1.142820564
332,CaAgAs,-0.791395569
333,Ag3BO3,-1.21598638
334,Ag2PS3,-0.501956567
335,CsAgF3,-2.154464227
336,Ag3F8,-1.373033331
337,Ca19Ag8N7,-0.628830989
338,Ag(BCl)6,-0.943225009
339,Li2AgSn,-0.37025057
340,CsAgCl2,-1.528915069
341,DyAgGe,-0.657556375
342,Ho3(AgSn)4,-0.462862708
343,Rb2AgBr3,-1.320594191
344,LiInAg2,-0.222796377
345,AgI,-0.258525713
346,Cd8Ag5,-0.061908393
347,NdAg2,-0.263645548
348,Ag10Te4Br3,-0.178926393
349,Ag10Te4Br3,-0.181036661
350,YbAg2,-0.370498847
351,YbAg,-0.42598978
352,PrAg2,-0.27340421
353,CaAgBi,-0.564333573
354,SrAg,-0.32352082
355,SmInAg2,-0.37900273
356,AgTe,-0.047153077
357,Ag2Se,0.058671512
358,AgI,-0.179133558
359,Ag2Se,-0.070655363
360,LuAg4,-0.231998758
361,Ag2Se,-0.063732192
362,AgSe3I,-0.100005796
363,TmInAg2,-0.353202524
364,Yb2Ag7,-0.298692227
365,ErAgSn,-0.568249087
366,In5AgTe8,-0.316708503
367,YInAg2,-0.38145069
368,K2AgI3,-1.088119044
369,Ag2HgI4,-0.30039657
370,AgBr,-0.330203422
371,AgAuCl4,-0.759085667
372,AgTe3I,-0.095395047
373,AgBiTe2,-0.0766208
374,Ba4Ag3Ge20,-0.258353403
375,PrInAg2,-0.37020284
376,AgCl,-0.713281967
377,CrAgSe2,-0.194806229
378,Mg30Al24Ag19,-0.042499266
379,SmAgPb,-0.450731365
380,AgCl,-0.688763062
381,Ag3Te2Au,-0.07180649
382,CsAgBr2,-1.104233099
383,Yb5Ag3,-0.355111981
384,AgN3,0.358491149
385,Yb3Ag2,-0.375471338
386,K3AgO2,-1.203464034
387,YAgSn,-0.612646883
388,GaAg2,-0.044972916
389,AgI,-0.236508488
390,Ce3(AgSn)4,-0.073644605
391,TaAgS3,-1.063778614
392,TlAgTe,-0.217909241
393,Be2Ag,0.020156305
394,Ag2S,-0.254670556
395,Ag3Sn,-0.024037335
396,KAg3Te2,-0.150396282
397,TaAg7S6,-0.551500047
398,Ti3Ag,0.122473685
399,AgPb2Br5,-0.77468411
400,Eu3Ag2,-0.240041612
401,EuAg,2.395653335
402,VAgO3,-1.747074675
403,ZrAgMo,0.96113886
404,AgAsRu2,0.514555931
405,AlAgB,0.849245198
406,Ag3SI,-0.217549395
407,Cs2AgBr3,-1.355142191
408,Y6AgTe2,-0.683192978
409,NdMg2Ag,-0.122931184
410,Ca3Ag8,-0.226876869
411,Ag9(BiO3)2,-0.4180825
412,AgIrF7,-1.735029885
413,Ag3AsSe3,-0.109005353
414,EuAg,-0.287448963
415,CeInAg2,-0.256525562
416,CeAgAs2,-0.767461978
417,TaAg7S6,-0.512015508
418,Ag33(PbO3)14,-0.828910616
419,Ag3SI,-0.215403199
420,Ga12Ag2Te19,-0.256847496
421,NbAgO2,-1.562453295
422,CeAgP2,-0.562507427
423,Ag2HgI4,-0.125748138
424,InAgTe2,-0.018726017
425,HoAgSe2,-1.167295151
426,Sm4Ag2Se7,-1.395560915
427,Ag4AuS2,-0.077570473
428,Nd4Ag2Se7,-1.397803257
429,Ag3SI,-0.217149182
430,AgClO2,-0.320110865
431,Ag7(SI)2,-0.081189832
432,InAgS2,-0.55934042
433,Ag3SI,-0.21804121
434,Ce5AgSe8,-1.600374002
435,Gd5AgS8,-2.209820226
436,RbAg4I5,-0.496858314
437,Ag9Te4Br3,-0.122286399
438,YAgSe2,-1.175193102
439,NbAg7S6,-0.490482579
440,RbAg4I5,-0.44360337
441,LuAgS2,-1.622412046
442,Ag9(SI)4,-0.16173426
443,Ag3SI,-0.214917447
444,RbAg4I5,-0.467476023
445,Ag13(PbO3)6,-0.841399891
446,Ta4AgS8,-1.386490513
447,Mg54Ag17,-0.140324795
448,Ag8Ge3O10,-1.068407266
449,Ag2SnO3,-1.215982429
450,AgMo6Br13,-0.647714588
451,Ag7P3S11,-0.51626714
452,AgI,-0.282001245
453,Ag2Te,-0.029924076
454,Ag2Te,0.001633712
455,Tl18Ag59Se39,-0.123304499
456,Ag15Bi7I40,-0.204886955
457,Ag3(Bi2Br3)7,-0.466529361
458,FeAgTe2,0.17375402
459,Gd5AgSe8,-1.667567793
460,Ag4SI,0.029090388
461,Ag15(BiI4)16,-0.375593989
462,TmAgSn,-0.55084926
463,SrAgAs,-0.794224955
464,NaAgO,-1.057485146
465,Mn3(AgO2)4,-1.247009929
466,Mn3(AgO2)4,-1.214931762
467,TcAgO4,-1.546304726
468,KAgF4,-2.051208481
469,Na2AgSb,-0.369143274
470,LiAgF4,-1.990616899
471,LiAgF2,-2.123022827
472,LiAgF2,-2.183135501
473,LiAg2F4,-1.838484794
474,LiAgF3,-2.095120081
475,LiAg2F4,-1.861319039
476,AgAuO3,-0.326110836
477,LiAgF2,-2.114790174
478,LiAg2F4,-1.84045512
479,LiAgF4,-1.967263383
480,Li2AgF3,-2.434353044
481,LiAgF3,-2.099094026
482,LiAgF2,-2.163502433
483,LiAgF2,-2.174136262
484,LiAg2F4,-1.770986864
485,LiAg2F4,-1.849501346
486,LiAgF2,-2.163147399
487,LiAgF2,-2.119076617
488,Li2AgF5,-2.23155079
489,LiAg2F6,-1.770470686
490,LiAg2F4,-1.807330909
491,LiAgF2,-2.107085504
492,NaAgO2,-1.023471537
493,Ag2O,-0.297604114
494,Li2AgF3,-2.500622713
495,Ag2Se,-0.06489734
496,Ag2GeO4,-1.087210263
497,AgSnO3,-1.366966016
498,AgBrO4,-0.179125829
499,AgBrO4,-0.212733846
500,AgBrO4,-0.197095121
501,Ag7(PbO3)3,-0.830611756
502,LiAgF4,-1.96320984
503,Li2AgF5,-2.241159025
504,AgHg,0.0850031
505,AgHg,0.088704808
506,Li2AgF5,-2.210493778
507,LiAgF2,-2.160970027
508,Li2AgF3,-2.449736525
509,AgF,-1.194374378
510,Ag2SnO3,-1.215627624
511,Li3Ag2F5,-2.310378524
512,LiAgF2,-2.160010117
513,Ag2Hg5,0.064449386
514,Li6Ag3F10,-2.41841917
515,LiAgF3,-2.089084823
516,In2Ag,0.079728397
517,Li2AgF3,-2.460272636
518,Li2AgF5,-2.258922803
519,Li2AgF4,-2.387572273
520,Li2AgF4,-2.372252709
521,Li2AgF3,-2.434558301
522,Li2AgF4,-2.350426468
523,LiAg2F6,-1.753760076
524,AgRuO4,-1.027408648
525,Li2AgF4,-2.406693107
526,LiAgF4,-1.991961819
527,LiAg2F4,-1.851416201
528,Li2AgF4,-2.345436948
529,V4(AgO4)3,-1.807794742
530,K2AgAs,-0.405358565
531,K2AgSb,-0.415760273
532,LiAgF4,-1.938650889
533,Li2AgF5,-2.258842027
534,LiAgF4,-2.002450742
535,LiAg2F6,-1.7985019
536,Ag7Sb9O25,-1.453876436
537,Ag2Hg3,0.075957476
538,Ag11Hg9,0.099854658
539,Ag2O,-0.21337631
540,Ta3AgO8,-2.96691007
541,AgF2,-1.454898547
542,AgAsO3,-1.249717576
543,AgBiO3,-1.043814282
544,ScAgO3,-2.127802739
545,AgAuO3,-0.369384626
546,AgRuO3,-1.004479021
547,AgClO3,-0.529061929
548,Ag3IrO4,-0.634669942
549,MnAgO3,-1.201171828
550,AgGeO3,-1.352127735
551,AgGeO3,-1.347774166
552,AgBO3,-1.518041495
553,Ca(AgGe)2,-0.303816084
554,Sr(SiAg)2,-0.295937572
555,Ba(AgSn)2,-0.402814856
556,AlAgS2,-1.02248935
557,AgP2,-0.011001071
558,AgO,-0.152602886
559,Na2AgAs,-0.387824346
560,Ta3AgO8,-2.967285358
561,Li17Ag12F29,-2.270120667
562,Ag,0.005402078
563,RbAgO,-1.015561706
564,Pr2AgIr,-0.40728108
565,AgHgPd2,-0.146341085
566,AcH3,-0.654950593
567,Ac2AgIr,-0.365766551
568,AcZnAu2,-0.537615589
569,AcMgTl2,-0.270811911
570,AcI3,-1.523737829
571,Ac2HgGe,-0.506313432
572,LiAc2Si,-0.201916714
573,Cd2AgRh,-0.077641568
574,AcCdRh2,-0.357323304
575,Ac2CuIr,-0.320220121
576,AcGaTe2,-0.947168923
577,HoAlAg2,-0.332433838
578,Ac3Sn,-0.329065361
579,Ag2F3,-1.346172853
580,AcHgAu2,-0.606018569
581,PrAgHg2,-0.360491758
582,AcHg3,-0.414472197
583,Ac2CdSn,-0.474354584
584,Sc2InAg,-0.374341848
585,Sc2TlAg,-0.292003243
586,Sc2TcAg,-0.239158776
587,Sc2AgOs,-0.376988716
588,LiAcTl2,-0.305182474
589,LiAc2Ga,-0.22490451
590,AcAl3,-0.368505362
591,AcGe3,-0.442826266
592,LiAc2Ge,-0.304635515
593,DyMgAg2,-0.303623231
594,Ac2GaCu,-0.265793715
595,LiAc2Ir,-0.273784806
596,LiAc2Ru,-0.015130905
597,Ac,0
598,Ac2SiAu,-0.558358676
599,Sc2AgHg,-0.36529843
600,Sc2AgAu,-0.55539328
601,CeAg3,-0.073331487
602,LiAg3,-0.137794945
603,SmAg3,-0.205977757
604,PrCdAg2,-0.272294897
605,Ac2CuGe,-0.361584692
606,RbAcTe2,-1.253052404
607,Ac2NiIr,-0.326826596
608,AcInAu2,-0.659922884
609,AcAgHg2,-0.332444289
610,PmAgHg2,-0.365045904
611,PmAg2Pb,-0.289446077
612,PmAg3,-0.195695277
613,AcAg2Sn,-0.357266677
614,AcSbAu2,-0.676249992
615,PmGaAg2,-0.306253221
616,PmInAg2,-0.379203837
617,ThInAg2,-0.222866835
618,PmMgAg2,-0.298300791
619,AcAgAu2,-0.562249209
620,Pm2AgIr,-0.475122134
621,Pm2AgGe,-0.52811584
622,Ag2Br3,-0.277256715
623,Pm2AgRu,-0.232504955
624,KAcTe2,-1.304213507
625,Pm2SiAg,-0.424956591
626,V18Ag7O48,-2.062996157
627,AcFeO3,-2.88781133
628,LiMg2Ag,-0.216577107
629,AcCuO3,-2.438226082
630,Ag2Cl3,-0.735625942
631,AcCdHg2,-0.412879409
632,ErAgHg2,-0.31851639
633,LiAcTe2,-1.213719474
634,HoAgHg2,-0.328542377
635,PaAgTe2,-0.36791955
636,NdAgAs2,-0.775444534
637,ZnAg3,-0.029276772
638,Ac2SnHg,-0.559634154
639,NaAcAu2,-0.609160968
640,NaAcHg2,-0.390164583
641,AcZn3,-0.245156156
642,NdAgAu2,-0.562849629
643,NdAgHg2,-0.363999879
644,HoCdAg2,-0.279192482
645,Mg2AgPt,-0.58192235
646,MgAg3,-0.165505415
647,Mg3Ag,-0.13122406
648,CaAcZn2,-0.273470092
649,Mg2AgIr,-0.29643231
650,Mg2AgAu,-0.449249282
651,Dy2AgIr,-0.604060327
652,Ca2AgPb,-0.475450355
653,AcMg5,-0.079948474
654,AcTlTe2,-1.046291059
655,CeMgAg2,-0.158036676
656,NaAcTe2,-1.265011551
657,NaAcTl2,-0.278711993
658,Dy2AgRu,-0.363164976
659,CaAcHg2,-0.547485734
660,MgGaAg2,-0.154728645
661,EuAg2Sn,-0.333901461
662,Lu2TcAg,-0.200387244
663,Tm2AgOs,-0.339736164
664,Tm2AgIr,-0.654352527
665,Ac2ZnIr,-0.369888451
666,YbNdAg2,-0.364337924
667,Lu2AgHg,-0.411570885
668,Ac2CuSn,-0.348160171
669,YAgHg2,-0.340293373
670,YCdAg2,-0.296850263
671,YAlAg2,-0.335250745
672,Lu2InAg,-0.391335628
673,Ac2ZnGa,-0.3532891
674,AcTe3,-0.871722799
675,Y2AgRu,-0.343768269
676,Yb2AgIr,-0.480205465
677,Yb2AgGe,-0.572164354
678,Yb2AgPt,-0.79843992
679,Yb2AgPb,-0.522282967
680,CaAg2Sn,-0.348058543
681,YbCdAg2,-0.326304712
682,LuInAg2,-0.337094675
683,Ac2SiPd,-0.560093204
684,CeAgAu2,-0.480124003
685,TmCdAg2,-0.281141076
686,Li2AgHg,-0.297434482
687,Li3Ag,-0.156738293
688,Li2AgAu,-0.40194095
689,CeAgHg2,-0.256223467
690,YbPmAg2,-0.366884622
691,Li2AcIn,-0.261712477
692,CdAg3,-0.049135537
693,Li2AcSn,-0.408612924
694,Li2AcPb,-0.312095164
695,MgAlAg2,-0.180596411
696,AcTiO3,-3.624110554
697,AcAg3,-0.206854453
698,Ac2IrAu,-0.613614489
699,AcTlAu2,-0.590017824
700,YbAcZn2,-0.300502157
701,AcSnAu2,-0.680834029
702,AcTlAg2,-0.230776362
703,LiGaAg2,-0.223126491
704,CeAlAg2,-0.183416868
705,LuCdAg2,-0.27270353
706,AcMgCd2,-0.268764633
707,Li2AgPd,-0.346872563
708,AcBiAu2,-0.665283944
709,Ac2ZnGe,-0.415862327
710,AcN,-1.282007735
711,CaPrAg2,-0.313097608
712,NdMgAg2,-0.29098812
713,Ac2MgSn,-0.35855121
714,Ac2IrPd,-0.626014954
715,Tm2TlAg,-0.333361253
716,Lu2TlAg,-0.32141964
717,Lu2AgIr,-0.6851877
718,Lu2AgOs,-0.366608379
719,Y2AgIr,-0.586734753
720,YMgAg2,-0.310390746
721,AcAg,-0.268365834
722,YbAcHg2,-0.565429954
723,Yb2AgRh,-0.523469997
724,AcSi3,-0.346213407
725,AcMgHg2,-0.437985366
726,AcMg,-0.090215861
727,Ac2ZnSi,-0.313653276
728,AgBr,-0.37155557
729,CsAgO,-1.018166376
730,AcCrO3,-3.143048152
731,AcInTe2,-0.991021762
732,Ac2SiCu,-0.260407039
733,SmZn2Ag,-0.290116408
734,Sr2AgPt,-0.526435245
735,SmAgAs2,-0.771294491
736,CeZn2Ag,-0.192134525
737,Ac2GePd,-0.668500332
738,SmAgAu2,-0.578077925
739,CdAgPd2,-0.263995888
740,AcIn3,-0.440656737
741,CeTlAg2,-0.140949963
742,AgAu3,-0.027382953
743,AcAgTe2,-0.830868272
744,AcInHg2,-0.439707364
745,AcCdAg2,-0.232493507
746,CsAcTe2,-1.191238164
747,AcPbAu2,-0.631338884
748,LiAg2F4,-1.825769187
749,AgSbO3,-1.402459905
750,LiAgF6,-1.531318754
751,LiAgF4,-1.997936839
752,AcSe3,-1.057947135
753,AcGa3,-0.533466977
754,LiAg3F8,-1.657169398
755,AcAu3,-0.692742208
756,RbAgF3,-1.899379462
757,Sm2AgRu,-0.259881311
758,SmTlAg2,-0.25107653
759,AcCd3,-0.275183363
760,DyAgHg2,-0.334430733
761,SrAcHg2,-0.525737892
762,TlAg3Te2,0.089578196
763,CsAg5Te3,-0.304489627
764,ErAgGe,-0.408582729
765,YbAgSb,-0.730532309
766,LiAg2Ge,-0.161715789
767,ZrAgB,0.884009711
768,Na3AgS2,-1.094276939
769,Ag2HgS2,-0.322371118
770,V3Ag,0.368976055
771,TmMgAg2,-0.30749034
772,YDyAg2,-0.333829115
773,Tm2ZnAg,-0.337738135
774,YbAc3,0.037766552
775,YErAg2,-0.337144815
776,Sm2AgSn,-0.528550548
777,Sm2TlAg,-0.33162505
778,SmAg3,-0.204444034
779,Sm(AgGe)2,-0.400615264
780,Sc2AlAg,-0.360360372
781,HoErAg2,-0.337873442
782,MgInAg2,-0.162386116
783,NaAg3,0.001978956
784,ScAgO2,-2.639885978
785,FeAg3,0.34801546
786,Lu2GaAg,-0.469227759
787,Nd3Ag,0.021622451
788,Nd2AgHg,-0.368304178
789,ReAg3,0.896424313
790,LiAg2Pd,-0.21048434
791,Rb3Ac,0.466088358
792,NdTlAg2,-0.255351804
793,Rb3Ag,0.121305243
794,Rb3Ac,0.464446091
795,RbAc3,0.378249009
796,RbAgO3,-0.472700379
797,RbAcO3,-2.24830374
798,RbAc3,0.374430557
799,Pr3Ag,0.01475036
800,PrTlAg2,-0.255530363
801,PrMgAg2,-0.285208661
802,NaAc,0.173042974
803,NaAc2Pb,-0.216136053
804,NaAc2Sn,-0.292976095
805,KAgO3,-0.513121715
806,NaInAg2,-0.080038159
807,Li2AcTl,-0.205646297
808,Nd2ZnAg,-0.27591697
809,Li3Ac,0.177469816
810,Li3Ag,-0.159600822
811,K3Ag,0.101248033
812,NiAg3,0.189123135
813,NiAg3,0.194524405
814,Li3Ag,-0.15007036
815,Ac2S3,-2.531325294
816,AcF3,-4.435462459
817,ErCdAg2,-0.283731683
818,TbAgHg2,-0.346729844
819,TbAlAg2,-0.332235494
820,TbCdAg2,-0.289675254
821,Er2AgIr,-0.64259058
822,PaAgAu2,-0.291379717
823,PaAgO3,-2.857549419
824,ErAlAg2,-0.331147688
825,MgScAg2,-0.290585396
826,YbAgGe,-0.497818969
827,La3Ag,-0.013605659
828,SmAg2Hg,-0.26011623
829,Si3Ag,0.532917495
830,Sm2AgHg,-0.379671023
831,Sm3Ag,0.020497527
832,Si3Ag,0.562928422
833,Sm2InAg,-0.387769235
834,TbTlAg2,-0.244379029
835,SrAcZn2,-0.223761797