id,Composition,FormationEnergy
22257,Mn5CoO12,-1.674932383
22258,TiCo5O12,-1.460731834
22259,MnCo5O12,-1.222241081
22260,V4FeCoO12,-2.199535105
22261,Co5Te3O16,-1.308055947
22262,TiV4CoO12,-2.372560107
22263,Li7Co5O12,-1.794685127
22264,Mn2Co5O12,-1.347517918
22265,Fe5Co3O16,-1.239423029
22266,Mn5Co3O16,-1.521115223
22267,Mn3Co5O16,-1.335389585
22268,MnV4CoO12,-2.243816684
22269,Li3Co(NiO2)4,-1.360883452
22270,Ti2Mn3Co3O16,-1.924640189
22271,Cr3Co5O16,-1.391639934
22272,FeCo5O12,-1.138876586
22273,Li5Co7O12,-1.617178353
22274,Co(NiO2)4,-0.840022497
22275,CoPHO5,-1.783780773
22276,Tl3Co3O8,-1.162525036
22277,LiCo8O9,-1.36688097
22278,Co(SO4)2,-1.639734835
22279,Co3SnO8,-1.321129487
22280,Mn3Co3(TeO8)2,-1.488568677
22281,Li10Co4O9,-1.789495454
22282,Li9Cr12Co7O48,-1.78056311
22283,Cs6Co2O7,-1.536359612
22284,Mn(CoO2)4,-1.373675809
22285,Co(CuO2)4,-0.872376605
22286,CrCo5O12,-1.226509433
22287,Co4NiO8,-1.105304485
22288,Li4MgCo3O8,-1.925239984
22289,Co5NiO12,-1.026324454
22290,LiCo6O7,-1.395918261
22291,Li2CoO2,-1.647777572
22292,Mn3Co2Te3O16,-1.509235174
22293,Li3Co3(Ge3O8)2,-1.995449066
22294,Na2Co2O3,-1.440699758
22295,Na8Co5O14,-1.45758383
22296,LiCo(SO4)2,-1.952644585
22297,CoP6(WO8)3,-2.425544093
22298,V4CoNiO12,-2.097569991
22299,V3Co3(TeO8)2,-1.702931024
22300,Co3(SeO3)4,-1.238626754
22301,Li11Co12(PO4)12,-2.382098512
22302,Li3(CoO2)5,-1.554616156
22303,Co3P6WO24,-2.138898947
22304,NaCo11O17,-1.340115166
22305,Na7Co3O8,-1.566621635
22306,LiCo3P4O15,-2.206705352
22307,Li8MgCo13O28,-1.544987112
22308,Fe2Co3O10,-1.198667443
22309,Na8Co2O7,-1.576551582
22310,Fe3Co7O20,-1.170750918
22311,LiCr(CoO3)2,-1.645109113
22312,Li5Co2(PO4)3,-2.49038855
22313,Co4TeO8,-1.368030717
22314,Li2Co2OF6,-2.417656802
22315,NaCo2O3,-1.446275758
22316,Co2P2H12O13,-1.725205718
22317,Co(MoS2)2,-0.979011581
22318,Li4Co7(OF7)2,-2.405325432
22319,Li3Co2OF5,-2.53234745
22320,LiCo2OF5,-2.234835763
22321,Li7Co(O2F)2,-2.219462457
22322,Li5Co7O3F13,-2.398335067
22323,LiCoOF2,-2.231345276
22324,LiCo3(SiO4)2,-2.250390166
22325,Li4Co3OF11,-2.524035463
22326,Li5Co4(Si3O10)2,-2.52899509
22327,Li4Co5O9F,-1.69490044
22328,Li5Co2(SiO5)2,-2.301396615
22329,LiCo3(OF3)2,-2.09844118
22330,Li4CoO3F,-2.126054786
22331,Li3Co4SbO8,-1.765331299
22332,Li5Fe5(CoO6)2,-1.92502067
22333,Ti2Co3Te3O16,-1.87264192
22334,Li8CoNi9O20,-1.290691101
22335,Li6Co6O5F11,-2.314196918
22336,LiCo2O2F3,-2.015900846
22337,Mn3Nb2Co3O16,-1.920466731
22338,Co3Ni3(TeO8)2,-1.092827796
22339,Li4Co2OF7,-2.670679877
22340,Li5Co2O2F5,-2.545365543
22341,Li2CoOF3,-2.470511834
22342,Li4Co(OF)2,-2.325792922
22343,Li8CoO5F,-2.07882771
22344,Li2Co(SO4)2,-2.164849257
22345,CoP3NO9,-1.83217058
22346,CoSn(PO4)2,-2.341271295
22347,Mn3Co3(SbO8)2,-1.570439955
22348,TiCo3(PO4)4,-2.404154912
22349,HfInCo2,-0.280483531
22350,Li4Co3NiO8,-1.678636577
22351,Li5Mn2Co3O10,-1.901763801
22352,Li6Mn5CoO12,-2.045174194
22353,Li4MnCo3O8,-1.789964334
22354,Li4CoNi3O8,-1.479217993
22355,Li6CoNi5O12,-1.410238355
22356,Li4Fe3(CoO4)3,-1.69448259
22357,TiGaFeCo,-0.470835204
22358,TiFeCoSi,-0.64594858
22359,TiFeCoSb,-0.296700073
22360,MnGaFeCo,-0.122727975
22361,LaCrCoO6,-2.077595522
22362,ZnCo2P2O9,-2.043075675
22363,MgCo2(PO4)2,-2.439903149
22364,HoMg(CoO3)2,-2.249038116
22365,HoZn(CoO3)2,-1.955320314
22366,ZnCo2(CuO4)2,-1.000353078
22367,MgCo2(CuO4)2,-1.219798148
22368,ZnCo3P3O13,-2.054881398
22369,MgCo3P3O13,-2.218607007
22370,MgCoP2O7,-2.642249057
22371,ZnCo2(P2O7)2,-2.232013134
22372,La2ZnCoO6,-2.685183396
22373,Sr2CoCu2O7,-1.672538112
22374,La2MgCoO6,-2.878163153
22375,Zn2CoSbO6,-1.620892432
22376,Mg2CoSbO6,-2.171349
22377,YCo4(CuO4)3,-1.490437241
22378,MgCo(PO3)4,-2.647502288
22379,Mg2Ta2CoO8,-2.991667499
22380,Ta2Zn2CoO8,-2.565721067
22381,SrCo(PO4)2,-2.482622288
22382,Mg4Co5(TeO6)3,-1.940883316
22383,Zn4Co5(TeO6)3,-1.580891246
22384,Sr3Co2S2O5,-1.91295745
22385,ZnCoPO5,-2.008620437
22386,Sr2CoSO3,-2.084446457
22387,ZnCoSiO5,-1.939031805
22388,MgCoSiO5,-2.355412396
22389,MgCoPO5,-2.367167071
22390,Mg2Nb2CoO8,-2.826476241
22391,Mg3Co2(SiO4)3,-2.689090896
22392,Zn3Co2(SiO4)3,-2.220304973
22393,Sr2YCo2O7,-2.253112289
22394,Nb2Zn2CoO8,-2.39910817
22395,Sr2GaCo2O7,-1.983508688
22396,Y2Co3(SiO4)3,-2.739831826
22397,TaZn2CoO6,-2.091711508
22398,Zn3Co2(GeO4)3,-1.737647364
22399,Mg3Co2(GeO4)3,-2.189886613
22400,Sr2Y2Co2O7,-2.798641409
22401,Mg3Co2(Si2O7)2,-2.747169091
22402,Mg2CoWO6,-2.367379928
22403,Zn3Co2(Si2O7)2,-2.371722032
22404,Zn2CoWO6,-1.797510913
22405,MgCo(SiO3)2,-2.848309492
22406,ZnCo(SiO3)2,-2.575781224
22407,Mg2CoIrO6,-1.905685581
22408,Zn2CoIrO6,-1.342532395
22409,YCo(WO4)2,-2.330935461
22410,MgFe2CoO7,-1.495157119
22411,Ti2ZnCoO7,-2.352439229
22412,MgTi2CoO7,-2.61357699
22413,MgV2CoO7,-2.307766127
22414,V2ZnCoO7,-2.038654645
22415,ZnCoSb2O7,-1.611726752
22416,Ta2ZnCoO7,-2.578625366
22417,MgTa2CoO7,-2.858902415
22418,MgCoSb2O7,-1.875366631
22419,ZnFe2CoO7,-1.250064422
22420,MgMn2CoO7,-1.630965009
22421,MgCoMo2O7,-2.013397582
22422,ZnCoNi2O7,-0.749078886
22423,MgCoNi2O7,-1.017822794
22424,ZnCr2CoO7,-1.635911957
22425,ZnCoMo2O7,-1.767564529
22426,ZnCoSn2O7,-1.567088994
22427,MgCo4(CuO4)3,-1.232323161
22428,ZnCo4(CuO4)3,-1.078015379
22429,MgCo(GeO3)2,-2.196482367
22430,ZnCo(GeO3)2,-1.901016014
22431,MgCo(Si2O5)2,-2.959333295
22432,ZnCo(Si2O5)2,-2.772376791
22433,MgCo3(P2O7)2,-2.410910133
22434,ZnCo3(P2O7)2,-2.26041896
22435,MgCo2(PO5)2,-2.03951095
22436,ZnCo2(PO5)2,-1.840991753
22437,PrMg(CoO3)2,-2.153542101
22438,PrZn(CoO3)2,-1.867384841
22439,CrNi3,-0.016731512
22440,CrH,0.315713301
22441,Cr3Ni,0.163544335
22442,Cr3Fe,0.12258244
22443,CrTe,0.11830611
22444,CrN,-0.029282581
22445,CrO2,-1.860628904
22446,CrSe2,-0.451337536
22447,CrN2,0.448732472
22448,Cr3N2,-0.497932297
22449,Cr3N4,-0.517983986
22450,MnFeCoGe,-0.164420535
22451,CrFe3,0.06653632
22452,CrSi2,-0.362752951
22453,CrIr3,-0.22666767
22454,Cr3Ga,-0.048842869
22455,CrRh3,-0.129671323
22456,Cr3Ru,0.07100763
22457,Cr5S6,-0.98304065
22458,Cr2S3,-1.081099771
22459,TiCr2,-0.113000002
22460,Cr3Ir,-0.06300856
22461,CrSb,0.092741885
22462,Cr,0.068809796
22463,Cr3Ga4,-0.026259488
22464,CrO,-1.622321431
22465,Na2ZrCo(P2O7)2,-2.755734168
22466,ZrCr2,-0.0248697
22467,Cr2O3,-2.348802716
22468,Na2CoPO4F,-2.498777871
22469,Cr5O12,-1.821589524
22470,Cr3Ge,-0.119411116
22471,CrGe,0.009436824
22472,CrP,-0.550269438
22473,CrSe,-0.306288019
22474,CrSb2,0.091694498
22475,TaCr2,-0.123819002
22476,CrH2,-0.031224856
22477,K2CoPb(NO2)6,-1.140152481
22478,Rb2CoPb(NO2)6,-1.146008773
22479,Cr3O,0.792980126
22480,CrPt3,-0.258155402
22481,V2CoP2(H4O7)2,-1.99697935
22482,CoH2SeO5,-1.322588447
22483,CoSiH12(OF)6,-1.896986144
22484,LiCoPO4F,-2.389716504
22485,Li2CoPO4F,-2.548487903
22486,CoP4H16(NO8)2,-1.744399327
22487,Na2CoH8(SO6)2,-1.777564097
22488,Rb2CoH12(SO7)2,-1.721991219
22489,CoH20Se2(NO7)2,-1.211855499
22490,KCoH6(N3O4)2,-0.935956051
22491,CrI2,-0.302469187
22492,Cr2Te3,-0.207780306
22493,Cr3Se4,-0.495159096
22494,Cr2Se3,-0.520323472
22495,CrS2,-0.967897763
22496,Cr2P,-0.403247259
22497,CsTiCoOF5,-3.151197815
22498,NaCoP2HO7,-2.340284462
22499,SrLaMnCoO6,-2.565744289
22500,Cr3Os,0.014303055
22501,LiCo2P4H3O14,-2.282666684
22502,Cr3Pt,-0.019395958
22503,CoSnH12(OF)6,-1.771693329
22504,Cr12P7,-0.413216932
22505,CrO3,-1.538221156
22506,CrS,-0.830385587
22507,CrTe3,-0.129984411
22508,Co3H2Se3O10,-1.356939271
22509,CoH4SeO5,-1.314281169
22510,NaCo3P3(HO6)2,-2.192502988
22511,CoH2SeO4,-1.347608343
22512,CoNiH24(SO10)2,-1.496788637
22513,Co2Hg2H2S2O11,-1.580757592
22514,CoH20S2(NO7)2,-1.406685424
22515,K2Co3H6S3O16,-1.832038301
22516,NbCr2,-0.030874917
22517,K2CoH12(SO7)2,-1.721423878
22518,Sr2YCoCu2O7,-2.314561853
22519,CrF2,-2.835060026
22520,Cr3O8,-1.667383648
22521,Cr2F5,-2.948914239
22522,CrF3,-3.037412651
22523,Cr8O21,-1.708219287
22524,Cr5Ge3,0.011640815
22525,HfCr2,-0.096053779
22526,Cr3Te4,-0.13938418
22527,Cr11Ge8,0.008581535
22528,Cr11Ge19,-0.012954761
22529,CoSn2H12(OF)6,-1.771623283
22530,K2Cr4Co(HO4)4,-1.695754078
22531,ZnCoPHO5,-2.08494481
22532,CoP3H12NO7,-1.237821043
22533,CrSn2,0.146979798
22534,CoSb2S2(OF3)4,-2.381080556
22535,Rb2CoH12(SeO7)2,-1.449435178
22536,CrF5,-2.330163444
22537,Sr2GdCoCu2O7,-2.304630605
22538,KFeCo3(PO4)3,-2.296577941
22539,KCoPH2O5,-2.0692473
22540,K2CoH4(SeO5)2,-1.524094565
22541,K2CoP2WO10,-2.455418482
22542,Cr5S8,-1.057441535
22543,CrTe2,-0.190762055
22544,K5YCo2(NO2)12,-1.201599007
22545,K2CoH2(SeO5)2,-1.427037795
22546,NaCo2H3(SeO5)2,-0.865176937
22547,Cr7Se8,-0.401183473
22548,NaLaCoWO6,-2.30928367
22549,KCo2H3(SeO5)2,-1.02664407
22550,Sr16Fe6Co2Mo8O45,-2.521857157
22551,CrF4,-2.616252364
22552,YTl5Co2(NO2)12,-0.958076153
22553,Rb6In2Co2Si9O26,-2.791071177
22554,La5Mn7Co(PbO8)3,-2.47940651
22555,FeCoPO4F,-2.244108539
22556,CsTaCo(OF2)2,-3.04731206
22557,NaCo2H3(SO5)2,-0.939973176
22558,K4Ti3Co(PO4)6,-2.888908015
22559,Sr20FeCo9(MoO6)10,-2.55401021
22560,Cr3Si,-0.348509781
22561,CrP2,-0.436455759
22562,CrP4,-0.288254042
22563,KHoCoSi2O7,-2.957114596
22564,Na4Co3P4(H3O4)6,-1.89193471
22565,SrCo2H2(SeO3)4,-1.574980648
22566,CoH22S2N5O9,-0.587473592
22567,NaCoP3(H4O5)2,-1.77643122
22568,CoP2H18(NF2)6,-1.509066456
22569,Li2Ti4Co(PO5)4,-2.951824429
22570,CoPH6O6F,-1.797324693
22571,La4Mn5Co(PbO9)2,-2.519876533
22572,CoPH6NO5,-1.545854103
22573,NaCo2HSe2O7,-1.480423335
22574,CoP3H16N4O11,-1.436867555
22575,Sr20Fe3Co7(MoO6)10,-2.571053875
22576,Co2H21S3(NO2)6,-1.065775271
22577,CoP2H17N4O9,-1.291934164
22578,CoH6(SeO4)2,-1.337106921
22579,Li9FeCo12(PO4)12,-1.923811731
22580,CoH19S3N5O11,-1.147382336
22581,Sr10Fe4Co(MoO6)5,-2.545679465
22582,Sr20Fe9Co(MoO6)10,-2.630003282
22583,K2Co3P4(HO4)4,-2.218730316
22584,Cr5Si3,-0.315027194
22585,CrSi,-0.295223043
22586,Li4Co2Cu3Sb3O16,-1.637414666
22587,Li4Mn2Fe3Co3O16,-1.7477318
22588,Li6Fe3Co(PO4)6,-2.469949263
22589,Li4Co3Sn(PO4)4,-2.381751353
22590,Li4CoCu3(PO4)4,-2.244537489
22591,Li2CrCo(PO4)2,-2.487254958
22592,Li4Cr3Co(PO4)4,-2.530721321
22593,Li2CoNi(PO4)2,-2.346804695
22594,Li4Ti2V3Co3O16,-2.399364408
22595,Li4Mn3Co(PO4)4,-2.58607315
22596,Li4CrCo3(PO4)4,-2.444675999
22597,MnFe3Co2(PO4)6,-2.280280516
22598,Li4Cr3Co3(SbO8)2,-2.028762918
22599,Fe3Co2Ni(PO4)6,-2.156591195
22600,Li5Fe3Co2(PO4)6,-2.438549601
22601,Li4Co3Ni3(TeO8)2,-1.549731783
22602,Li4Mn3Co3(NiO8)2,-1.646591933
22603,Fe3Co2Cu(PO4)6,-2.178484401
22604,Li4Nb2Co3Ni3O16,-1.850383667
22605,Li4Co3Ni3(SbO8)2,-1.600179194
22606,Li4Fe3Co3(SbO8)2,-1.889639994
22607,Co2Ni3Sb(PO4)6,-2.035594802
22608,Ti3Fe2Co(PO4)6,-2.782061166
22609,CrFe3Co2(PO4)6,-2.306529256
22610,Li4CoSn3(PO4)4,-2.396088592
22611,Fe3Co2Sn(PO4)6,-2.314402039
22612,Mn3Co2Ni(PO4)6,-2.202008178
22613,Mn3Fe2Co(PO4)6,-2.239297937
22614,Li4Fe3Co(PO4)4,-2.512938151
22615,Mn3FeCo2(PO4)6,-2.299924877
22616,Mn3CrCo2(PO4)6,-2.327611676
22617,CoPH16NO10,-1.465043156
22618,LiCo2P4H3O16,-2.04235491
22619,Li6NbCo3(PO4)6,-2.511974571
22620,Li4Ti2Fe3Co3O16,-2.101086112
22621,Na2CoP4(H4O5)4,-1.919304088
22622,Ti3CoSn2(PO4)6,-2.748278273
22623,Li4Nb2Fe3Co3O16,-2.138653627
22624,Li4Mn3Co3(SbO8)2,-1.928416945
22625,Li4Ti3Fe2Co3O16,-2.331638244
22626,Li4Co3Cu3(WO8)2,-1.67760874
22627,Li4Mn2Cr3Co3O16,-1.915172437
22628,TiFe3Co2(PO4)6,-2.442081403
22629,Cr2CoNi3(PO4)6,-2.085171799
22630,Fe3CoCu2(PO4)6,-2.130707339
22631,Li2Mn2Co(PO4)3,-2.442897061
22632,Li4V2Co3Ni3O16,-1.660533785
22633,Li4Mn2Co3Cu3O16,-1.485959852
22634,Mn2Fe3Co(PO4)6,-2.32699082
22635,Li4Ti2Co3Ni3O16,-1.836072658
22636,Li4V3Co3(WO8)2,-2.170089563
22637,Li2Ti3Co(PO4)6,-2.787086087
22638,Mn3CoCu2(PO4)6,-2.146717496
22639,Li4Co3Ni2Sb3O16,-1.710629541
22640,Li4V2Co3Cu3O16,-1.658607999
22641,Li4Fe3Co2Cu3O16,-1.440165942
22642,Li5Mn3Co2(PO4)6,-2.440622154
22643,NbFe3Co2(PO4)6,-2.443554217
22644,Li4Co3Cu2Sb3O16,-1.686594665
22645,Fe3Co2Sb(PO4)6,-2.315577255
22646,Li4Ti3Mn2Co3O16,-2.355425843
22647,MnFeCo(PO4)3,-2.316993834
22648,Li4Mn3CrCo2(PO4)6,-2.456475757
22649,Li4Ti3Co3(NiO8)2,-2.131950754
22650,Li4Mn3Nb2Co3O16,-2.181493225
22651,Li8Mn7Co(PO4)12,-2.447477669
22652,Li4Cr3Co3(NiO8)2,-1.692815991
22653,Li4Nb3V3(CoO8)2,-2.477065302
22654,K2CoP4(HO2)8,-2.141320587
22655,Li4Cr3Fe2Co3O16,-1.83540133
22656,Co2H21I7(N2O)3,-0.653342823
22657,Li8MnCo7(PO4)12,-2.291296483
22658,Li4Fe3Co3(NiO8)2,-1.508048439
22659,Li4Co3Ni3(WO8)2,-1.698146077
22660,LiCo3Sb(PO4)6,-2.124362649
22661,LiNbCo3(PO4)6,-2.283393969
22662,Li3MnFeCo(PO4)3,-2.527877578
22663,Li4Cr3Co2Sb3O16,-2.05879735
22664,K2CoP4H10O17,-2.042450147
22665,Li4Fe2Co3Sb3O16,-1.887258854
22666,Li5Mn2Co5O12,-1.789275981
22667,Li8Fe3Co7O20,-1.766237285
22668,Li4V3Co3(SbO8)2,-2.104011161
22669,Li10CoNi9O20,-1.41566813
22670,Mn3CoSn2(PO4)6,-2.353624177
22671,Li2VCoO5,-2.082020113
22672,Li8VCo3(PO4)6,-2.488645302
22673,Li4Mn5Co(PO4)6,-2.484727094
22674,Li8Fe3Co5O16,-1.884138306
22675,LiTiCoO4,-2.460098332
22676,Li4Ti3Co3(TeO8)2,-2.323693885
22677,Li2MnCoO4,-1.931962658
22678,Li3Co2NiO6,-1.64481574
22679,Li7CoOF7,-2.883008879
22680,Li4FeCo3O8,-1.701312147
22681,Li10Fe3Co7O20,-1.85734146
22682,Li7Mn3Co3O16,-1.787101792
22683,Li4CoOF4,-2.759764159
22684,Li4Co3(OF3)2,-2.449878944
22685,Li3Co(NiO3)2,-1.465612384
22686,Li3Co2O2F3,-2.292534443
22687,Li2CrCoO4,-2.026240301
22688,Li5Mn3(CoO5)2,-1.947825741
22689,Li3Mn3CoO8,-1.957899805
22690,Li2FeCoO4,-1.87069012
22691,CoRe2(H2O3)4,-1.692269707
22692,Li4V3Co(PO4)4,-2.549647875
22693,Li4CrCo3O8,-1.849398895
22694,Li5Mn5(CoO6)2,-1.982142496
22695,Li11V12(CoO8)4,-2.282336184
22696,Li5Fe2Co5O12,-1.700779825
22697,Li5Co2Cu2(PO4)4,-2.308534576
22698,Li5Co5(CuO6)2,-1.537087347
22699,Li4Co3Cu3(TeO8)2,-1.524848152
22700,Li4Nb2Cr3Co3O16,-2.274342253
22701,CoNi(PO4)2,-1.973960382
22702,Li3Cr3(CoO6)2,-1.823481443
22703,Li5Co2Ni5O12,-1.406556238
22704,Li5Co5(NiO6)2,-1.539459228
22705,Li3Mn2(CoO4)2,-1.843212124
22706,Li3Cr2CoO6,-2.153792579
22707,Li4VCo3O8,-1.959286923
22708,Li2CoSn(PO4)2,-2.371704188
22709,Li4Mn3V2Co3O16,-1.980708642
22710,Li4Fe3Co2Ni3O16,-1.423292628
22711,Li4Cr2Co3Sb3O16,-1.968687291
22712,Li4Mn3Co2Te3O16,-1.775185765
22713,Li4Fe2Co3Te3O16,-1.703593181
22714,Li4Fe2Co3Cu3O16,-1.443956832
22715,Li4MnCo3(PO4)4,-2.463228059
22716,Li2CoCuO4,-1.575601296
22717,Li3Co2CuO6,-1.573548692
22718,SrLiLa15(CoO8)4,-3.18881086
22719,Li4Ti2Nb3Co3O16,-2.609315344
22720,Li4Mn2Co3Te3O16,-1.738130023
22721,Li4Mn3Fe3(CoO8)2,-1.825573557
22722,V2Co(H4O5)2,-1.67238342
22723,Li6CrCo3(PO4)6,-2.412475008
22724,SrLi4La15(CoO8)4,-3.212930536
22725,Li4V2Cr3Co3O16,-2.060345156
22726,Li2Co2SnO6,-1.728666077
22727,Co3Sb(PO4)4,-2.178172033
22728,LiMnCoO4,-1.812498264
22729,Li4Co3CuO8,-1.592025073
22730,Li4Co3Ni3(PO4)6,-2.148362695
22731,Li4Ti4Mn(Co2O9)2,-2.383863106
22732,Fe3Co2P6WO24,-2.351399966
22733,Li4Ti4V4CoO18,-2.763012845
22734,Li5Ti4Co3O16,-2.462241564
22735,Li5Co2Ni3O10,-1.528912308
22736,Li4Mn3Cr2Co3O16,-1.902733012
22737,Li4Mn3Co3(TeO8)2,-1.776872158
22738,Li3Co3CuO8,-1.447576606
22739,Li2TiCo2O5,-2.28278663
22740,Li2CoCu(PO4)2,-2.297052854
22741,Li2MnCo(PO4)2,-2.523721352
22742,Li4Ti3Cr3(CoO8)2,-2.479878235
22743,Li4Cr3CoO8,-2.212334257
22744,Li4Fe5CoO12,-1.790639641
22745,Li3Cr(CoO2)4,-1.781912044
22746,Li3Fe4CoO8,-1.913661727
22747,Li5Co5(SnO6)2,-1.824749845
22748,Li3Co4SnO8,-1.734095026
22749,Li4Mn3Co5O16,-1.714037534
22750,Li4Co3WO8,-1.92793974
22751,Li3Ti2CoO6,-2.711560196
22752,Li4Ti2Cr3Co3O16,-2.268658365
22753,LiCoPHO5,-2.104745511
22754,LiVCo3(PO4)6,-2.167905507
22755,Li3Co(CuO2)4,-1.370677267
22756,Mn3Fe3(CoO8)2,-1.423917134
22757,Li2CoSn3(PO4)6,-2.412778136
22758,Li4Ti3Fe3(CoO8)2,-2.326854021
22759,Fe3CoNi2(PO4)6,-2.170876117
22760,Li6Cr3Co(PO4)6,-2.548353924
22761,Li4Ti3Cr2Co3O16,-2.383834496
22762,Li4Ti3Mn3(CoO8)2,-2.423236671
22763,Mn3Co3(SnO8)2,-1.574787783
22764,Li2TiCo3(PO4)6,-2.330648968
22765,Li2CoH8(SO6)2,-1.775058581
22766,Li4Ti3V2Co3O16,-2.494701624
22767,Li4V3Co2Sb3O16,-2.113658312
22768,Li2CoH12(SO7)2,-1.683683355
22769,Li10Fe9CoO20,-2.043801197
22770,Li4Co3Sb5O16,-1.872033412
22771,Li3Fe(CoO2)4,-1.682512611
22772,Li4Mn2Co3Sb3O16,-1.901481184
22773,Li4Cr3Co5O16,-1.732247326
22774,Fe5Co(PO4)6,-2.318186807
22775,Li4TiCo3O8,-2.128042594
22776,Li4Co3Ni(PO4)4,-2.37563241
22777,Li5Nb2Co5O12,-2.091403225
22778,Li2VCoO4,-2.17332561
22779,Li3Mn(CoO2)4,-1.707198259
22780,Li4Nb2Co3Sn3O16,-2.243777398
22781,Li4Mn3Co3(CuO8)2,-1.618292759
22782,Li3Co4NiO8,-1.556664753
22783,Li3Ti(CoO2)4,-2.004459901
22784,Li3V(CoO2)4,-1.832284796
22785,Li4Co5Sb3O16,-1.779231496
22786,Li2CoSnO4,-1.991757822
22787,Li5Co3(SnO5)2,-1.93049667
22788,Li4Co5SnO12,-1.720008997
22789,Li5Nb2Co3O10,-2.25282807
22790,Li4FeCo5O12,-1.62563366
22791,Li3Ti(CoO3)2,-2.244041286
22792,Li4Mn5Co3O16,-1.859698917
22793,Li4V3Cr2Co(PO4)6,-2.544195772
22794,Li6FeCo3(PO4)6,-2.385346462
22795,Li4NbCo3O8,-2.077985304
22796,V4CrCoO12,-2.213023668
22797,Li5V2Co3O10,-2.077245426
22798,Li5Co3(NiO5)2,-1.553394999
22799,Li4CrCo5O12,-1.691954438
22800,Li5Co2Cu5O12,-1.40064949
22801,Li4TiCo5O12,-1.8855574
22802,Li4Mn5CoO12,-1.96406015
22803,Li5V2Co5O12,-1.938027924
22804,V3Fe2Co(PO4)6,-2.48254955
22805,Li4V3CoO8,-2.326274858
22806,Li4Ti3Co5O16,-2.202819527
22807,Li4V3Co3(TeO8)2,-1.998532486
22808,Li4Cr5Co3O16,-1.934978695
22809,MnCo(PO4)2,-2.228549256
22810,Li3Co3TeO8,-1.733312366
22811,NbCo3(PO4)4,-2.377689848
22812,Li3Co4TeO8,-1.612373397
22813,Li3Co3SbO8,-1.764807315
22814,Mn5Co(PO4)6,-2.34251079
22815,Li3Co(NO2)6,-1.179188521
22816,Li4Co3Ni5O16,-1.238877928
22817,Mn2Fe3Co3O16,-1.35913054
22818,Nb3Co(PO4)6,-2.72941764
22819,FeCo3(PO4)4,-2.166424371
22820,LiNbCoO4,-2.437941616
22821,V2Co(PO4)3,-2.514560544
22822,Li3Nb(CoO2)4,-1.979547027
22823,Li2Cr3(CoO6)2,-1.791814469
22824,Li4Co3Sn5O16,-1.960969766
22825,Li4Co5Ni3O16,-1.310287289
22826,Mn3Cr2Co3O16,-1.561645548
22827,FeCo(PO4)2,-2.22766601
22828,Li4Co5NiO12,-1.506151625
22829,Li3Mn4CoO8,-2.025498773
22830,Cr3O4,-2.137120517
22831,Li3Co4CuO8,-1.511876306
22832,Li6Fe3Co3O16,-1.588928677
22833,Li4CoNi5O12,-1.208233714
22834,Li2Co3TeO8,-1.612171492
22835,Li4Co5CuO12,-1.510812154
22836,Li5Cr2Co5O12,-1.830472215
22837,Li3V3CoO8,-2.281733618
22838,LiV3CoO10,-2.04107949
22839,Li3V2CoO6,-2.259877243
22840,Li4Fe5Co3O16,-1.693177859
22841,Li2V2CoO6,-2.138014662
22842,Li3Fe5(CoO6)2,-1.772183153
22843,Li4Co2(PO4)3,-2.417609936
22844,Li6Ti15Co3O32,-3.069985769
22845,Li4Co3TeO8,-1.775826977
22846,Li3Ti6Co3O16,-2.891859795
22847,Li4Ti3Co3(SbO8)2,-2.423287988
22848,Li2Mn3(CoO4)3,-1.708514448
22849,Li5V5(CoO6)2,-2.25655575
22850,LiCo2NiO6,-1.23546215
22851,Li10Cr2Fe3Co3O16,-1.95634008
22852,Li4CoNi5(PO4)6,-2.119280106
22853,Li10Ti3Co3(NiO8)2,-2.212554302
22854,Li10Fe3Co3(NiO8)2,-1.758662102
22855,Li4Mn2Co5O12,-1.722954452
22856,CoSb(PO4)2,-2.222141519
22857,Li2Mn2CoO6,-1.899876709
22858,Li4Nb2V3Co3O16,-2.386599926
22859,Li7Fe3Co(PO4)6,-2.496274767
22860,Li3Co2SbO6,-1.808605482
22861,Co3Sn(PO4)4,-2.220252403
22862,Li4Cr3Co3(TeO8)2,-1.922211541
22863,CoCu3(PO4)4,-1.935748556
22864,Co3Cu(PO4)4,-2.017797514
22865,MnCo3(PO4)4,-2.178746197
22866,Li2Co3WO8,-1.802483807
22867,CoSb3(PO4)6,-2.296327247
22868,Li4Fe5(CoO6)2,-1.863075041
22869,Li5Cr2Co3O10,-1.965633024
22870,Li6CoCu3(PO4)4,-2.281565911
22871,Li6CoNi9O20,-1.160024781
22872,Li4Ti2Co3O10,-2.345947298
22873,Co3Ni(PO4)4,-2.030868366
22874,Li4V2Co3Sb3O16,-2.023442282
22875,Li4Mn3Fe2Co3O16,-1.839193728
22876,Li4Fe3Co2Sn3O16,-1.861092913
22877,Li4Co3Sn2Sb3O16,-1.929918591
22878,Li4Mn3Co3(WO8)2,-2.005338895
22879,Cr3Co(PO4)4,-2.435948435
22880,Li3Mn5(CoO6)2,-1.903280861
22881,V3Co(PO4)4,-2.553422318
22882,Li4Co3Ni2Sn3O16,-1.667154427
22883,Fe3Co(PO4)4,-2.319717408
22884,Li4Cr3Co2Sn3O16,-2.012401425
22885,Li4Ti2Co3Sb3O16,-2.217736216
22886,Li4Mn3Co2Sn3O16,-1.954641208
22887,V3CoSn2(PO4)6,-2.4461788
22888,Li4Ti3Mn4(CoO9)2,-2.353950627
22889,Li4Mn2Nb3Co3O16,-2.273122491
22890,Ti3V2Co(PO4)6,-2.815009907
22891,Li4Ti2Co3Sn3O16,-2.244969374
22892,Li6Co3Sb(PO4)6,-2.392290153
22893,Li4TiFe4(Co2O9)2,-1.807761574
22894,Li4Ti4Mn4CoO18,-2.556962485
22895,Li4Nb3Co3(TeO8)2,-2.197995982
22896,Li4Cr2Fe3Co3O16,-1.765359531
22897,Li4Fe2Co3Ni3O16,-1.426444657
22898,Li4Cr2Co3Sn3O16,-1.948335711
22899,Li4V3Co3(SnO8)2,-2.104429593
22900,Li4Fe2Co3Sn3O16,-1.865188738
22901,CoPH21N5O7,-1.093780335
22902,Li4Nb3V2Co3O16,-2.364988537