id,Composition,FormationEnergy
29967,Li4Ni8O9F7,-1.634322167
29968,Li2Fe4OF8,-2.639715056
29969,Li3Ni(OF)2,-2.195415384
29970,Li4V3(OF2)4,-2.915472929
29971,LiVO2F,-2.713573229
29972,Li2FeOF3,-2.73429465
29973,Li3Ni3O3F5,-2.021816696
29974,Li6FeO5F,-2.041399765
29975,Li6V2O5F2,-2.498060374
29976,Li4Ni3O6F,-1.559459721
29977,Li2V2OF6,-3.039465656
29978,Li7FeO5F,-2.138223034
29979,Li2MnOF3,-2.752801091
29980,LiMn7(O3F)3,-2.200539106
29981,Li4V2OF7,-3.019134735
29982,Li2Mn2OF6,-2.764080667
29983,LiMn3O5F,-2.115352269
29984,Li4MnOF5,-2.894179115
29985,Li5V4O12F,-2.450254015
29986,Li4V3OF11,-3.135216127
29987,Li3VOF6,-2.917016985
29988,LiV2O2F3,-2.859728503
29989,LiV3(O2F)2,-2.692922664
29990,LiV2O3F,-2.635474593
29991,Li7V(O2F)2,-2.416818371
29992,LiVOF2,-2.914427896
29993,Li2V2OF5,-2.955754313
29994,Li3Ni8(OF3)4,-1.944250757
29995,LiNi3O3F,-1.423282647
29996,Li5Ni2O2F5,-2.504965577
29997,Li4MnO2F3,-2.679090932
29998,LiMn3(O2F)2,-2.290487379
29999,MnH8(NF3)2,-1.604440086
30000,LiMn2O3F,-2.306702424
30001,Li5Mn3O5F3,-2.438911064
30002,Li3V2(OF)3,-2.800557986
30003,Li5Ni3O5F3,-1.893086191
30004,Li6Ni11(OF12)2,-2.259954747
30005,Li3V4O7F5,-2.70682026
30006,Li5NiO3F,-1.981578762
30007,Li3V3O3F5,-2.82068784
30008,LiNiOF,-2.009629247
30009,Li3Ni4O4F3,-1.850289056
30010,Li5V5O9F,-2.469305709
30011,Li3V4O5F7,-2.850108592
30012,Li4Ni3(OF3)2,-2.293182972
30013,Li6VO5F,-2.442528065
30014,Li4V5O9F,-2.511659849
30015,Li3NiOF3,-2.562504116
30016,LiNi2OF3,-1.998751869
30017,Li2VOF3,-2.964398559
30018,Li6NiOF6,-2.827539641
30019,LiV3O5F,-2.584137453
30020,Li2Ni3O3F2,-1.776954475
30021,LiNi2O2F,-1.629542189
30022,Li3NiO2F,-1.970059882
30023,Li3V(OF)2,-2.731076061
30024,LiNi3OF5,-2.008653028
30025,LiNi6O6F,-1.195381764
30026,Li5V2OF11,-3.069758047
30027,Li4MnOF4,-2.84516897
30028,Li3Ni2O2F3,-2.235055351
30029,Li5VO3F2,-2.54638258
30030,Li2NiOF2,-2.393066158
30031,Li2V3(OF)4,-2.808067653
30032,Li3Ni3OF7,-2.378116801
30033,Li2Ni3OF6,-2.222351272
30034,LiNi4O4F,-1.317130484
30035,Li6V2OF11,-3.132677444
30036,LiV5O7F,-2.510043654
30037,Li8VO5F,-2.282029485
30038,Li3Ni5OF11,-2.274016783
30039,Li5NiOF5,-2.768484617
30040,Li3V3O5F3,-2.7298448
30041,Li8Ni(O2F)2,-2.124471478
30042,LiV6O7F5,-2.753159461
30043,Li4Ni3O3F4,-2.176866982
30044,LiNi5O3F5,-1.695607129
30045,Li4NiOF4,-2.686732257
30046,LiNi5O5F,-1.246302085
30047,Li3Mn5O2F9,-2.73758543
30048,Li4V4(OF3)3,-2.918490016
30049,Li3Mn(OF)2,-2.645796972
30050,Li2Mn4O3F8,-2.619168298
30051,LiFe5O5F,-1.873861679
30052,Li3V4(OF3)3,-2.983412644
30053,Li2V4OF12,-3.112201739
30054,LiV3(OF3)2,-2.976544116
30055,Li6VO4F,-2.296866478
30056,Li3Mn3(OF)4,-2.551954745
30057,RbH2O2F,-1.661483142
30058,Li2Ni4OF8,-2.177208424
30059,Li7NiOF7,-2.836318733
30060,LiNi7O7F,-1.129384457
30061,LiV2O5F,-2.449408638
30062,Li4Mn3O6F,-2.261348142
30063,Li4Mn8O13F3,-2.243862071
30064,Li4Mn5O9F,-2.176858133
30065,Li2V4O3F8,-2.975259432
30066,Li7MnO5F,-2.180634222
30067,Li4Mn3OF11,-2.843360085
30068,Li3Mn3O3F5,-2.6594196
30069,Li4Mn2OF7,-2.911124662
30070,Li8MnO5F,-2.217337654
30071,Li6Mn(OF)3,-2.522542253
30072,Li5MnO3F2,-2.45352568
30073,Li2Mn4O7F,-2.145588005
30074,LiMn5O7F,-2.154626948
30075,LiMn3(OF3)2,-2.658249172
30076,Li4Mn7O9F7,-2.421495154
30077,Li5Mn5O9F,-2.201892755
30078,Li4Mn3(OF3)3,-2.627467052
30079,Li3Mn3O5F3,-2.404078655
30080,Li4Mn3O5F3,-2.433196761
30081,Li2Mn3O4F3,-2.415291013
30082,Li4MnO3F,-2.2609154
30083,Li3MnOF4,-2.844563341
30084,Li6Mn2OF11,-2.905830968
30085,Li3Mn2OF5,-2.815684861
30086,Li7Mn(O2F)2,-2.349432747
30087,Li6Mn2O5F2,-2.337003827
30088,Li6MnO4F,-2.201679676
30089,Li4Mn8O9F7,-2.449823102
30090,Li4V8O13F3,-2.596507168
30091,Li2MnOF2,-2.695175006
30092,Li4Mn3(OF3)2,-2.735289164
30093,VSO4F3,-2.257605129
30094,Li5Nb3OF18,-3.269661167
30095,LiNb(OF)2,-3.187614259
30096,SbN3(O3F)3,-1.13756533
30097,SbSO4F3,-2.039855094
30098,Li3NbOF6,-3.215806006
30099,Mn2P2O7F2,-2.532327243
30100,SbH(OF3)2,-2.044433278
30101,Li2W(OF2)2,-2.794114699
30102,Li2VO2F3,-2.753395106
30103,MnH4(OF2)2,-1.928506823
30104,Li3FeOF4,-2.818915296
30105,Li3Fe2OF5,-2.698360345
30106,Li4FeO3F,-2.232013423
30107,LiFe3(OF3)2,-2.514088476
30108,LiFe2O2F3,-2.457083651
30109,LiSO3F,-2.351555867
30110,KRe4O8F13,-2.500741135
30111,LiFeOF,-2.341028519
30112,Li3FeOF3,-2.716851029
30113,Li3V2(OF)4,-2.750575377
30114,LiV4O5F7,-2.784834964
30115,Li3Fe4(OF3)3,-2.593503422
30116,Li2FeO2F,-2.344386823
30117,Li4Fe2OF8,-2.863600723
30118,LiV4OF11,-3.128085122
30119,Li11V12(OF)24,-2.651646384
30120,LiFe5O3F5,-2.27835498
30121,LiFe7(O3F5)2,-2.351194979
30122,Li8FeO5F,-2.208856763
30123,LiFe2O3F,-2.172483669
30124,Li6Fe2O5F2,-2.283976414
30125,Li6Fe(O2F)2,-2.281349277
30126,LiFe4OF7,-2.581830554
30127,Li5V6O5F19,-2.946622368
30128,Li2Fe2OF6,-2.771838693
30129,Li3Fe9O5F11,-2.367030655
30130,Li5FeOF5,-2.83302467
30131,Li11V6O5F19,-3.003173634
30132,LiV2(OF)3,-2.737362777
30133,LiFe7(OF3)3,-2.405381957
30134,Li3Fe(OF)2,-2.561851584
30135,Fe7(OF3)3,-2.384240282
30136,RbNaSnF6,-3.039897114
30137,MgSb2H2F14,-2.692386631
30138,Li3VOF4,-2.962126852
30139,LiFe3O3F4,-2.357743744
30140,Li2Fe3O3F5,-2.477007573
30141,Li2Fe5O5F7,-2.398580302
30142,Li2Fe3OF6,-2.635757419
30143,Li4FeOF4,-2.812490276
30144,Li3Fe4O3F5,-2.400656963
30145,LiFeOF2,-2.627014692
30146,Li7Fe5OF15,-2.784569205
30147,Li7Fe(O2F)2,-2.313229513
30148,PHPb2F10,-2.731471248
30149,KH4O4F,-1.388610147
30150,SnH6(NF2)2,-1.549484873
30151,Li4V7O9F7,-2.742990204
30152,Li6V(OF)3,-2.609702856
30153,Li4Ni7(OF7)2,-2.203063287
30154,Li3Ni2OF5,-2.364745597
30155,KSeO2F,-1.954756146
30156,LiGaPdF6,-2.499943175
30157,K3SeO4F,-2.069019821
30158,KH4O2F,-1.778618852
30159,Rb2NaGaF6,-3.099829082
30160,Sr6In2NF,-1.046016042
30161,Na2LiNF6,-1.87291963
30162,Rb2TlInF6,-2.784110514
30163,NaTl2InF6,-2.607673167
30164,Rb2NaSbF6,-2.908208609
30165,Rb2NaTlF6,-2.739126053
30166,LiTl2InF6,-2.616006443
30167,Tl2InGaF6,-2.403786381
30168,NaTl2GaF6,-2.672020369
30169,Rb2TlGaF6,-2.856725332
30170,Rb2InGaF6,-2.827441806
30171,Rb2NaPbF6,-2.786192692
30172,LiTl2GaF6,-2.664946174
30173,Rb2NaInF6,-3.03085003
30174,Sr6Sn2NF,-1.253500523
30175,VZnSF5,-2.528448666
30176,MgVSF5,-2.764288881
30177,FeP,-0.601261365
30178,Sb4S3N6(OF)12,-1.010263289
30179,Fe3Ni,0.028590252
30180,FeNi3,0.019183018
30181,MnFeTe,0.033407943
30182,FeN,0.068526344
30183,FeH,-0.056384344
30184,MnFe,0.094745164
30185,FeH3,0.163159921
30186,FeSe,0.245148566
30187,Fe3S4,-0.526866832
30188,Sc6FeTe2,-0.626883216
30189,FeIr3,0.00203481
30190,Fe(RhS2)2,-0.792644739
30191,TiFeSb,-0.363949339
30192,VFeSb,0.2378947
30193,FeTe,0.054864275
30194,NaYPO4F,-3.363406803
30195,Na2MgPO4F,-2.942571373
30196,Lu6FeSb2,-0.551765604
30197,Tm6FeSb2,-0.554250353
30198,NdFe5,0.037994911
30199,NpFe2,0.128026034
30200,YFe5,-0.043773343
30201,Zr2Fe,-0.141404747
30202,Fe3Pt,-0.082432355
30203,NdFe2,0.080147545
30204,Tl(FeS)2,-0.564457384
30205,Fe(PdSe)2,-0.270250403
30206,TlFeS2,-0.577470182
30207,Tb(Zn10Fe)2,-0.128694483
30208,Tm3FeSi3,-0.752379721
30209,Tb6FeSb2,-0.550531987
30210,Yb(FeP3)4,-0.562292462
30211,Fe,0
30212,VFe,-0.12283234
30213,Y3Fe29,-0.007851004
30214,FeNiPt2,-0.214798668
30215,Nd3Fe29,0.037818593
30216,Sm2Fe17,0.016213232
30217,Lu2FeS4,-1.863735801
30218,Fe7W6,-0.020312594
30219,K9Fe2S7,-1.23843348
30220,Rb9Fe2S7,-1.202294974
30221,Rb9Fe2Se7,-0.933681216
30222,Nd(FeSb3)4,-0.191716617
30223,Nd2Fe17,0.036682387
30224,RbFe2Se3,-0.505384669
30225,RbFe2Te3,-0.280474653
30226,FeS2,-0.948005724
30227,SmFe5,0.00443496
30228,YFe2,-0.06311649
30229,Fe3PdN,-0.20558781
30230,Ti3FeS6,-1.523402934
30231,Zr2Fe3Si,-0.531397718
30232,Nd(FeP3)4,-0.598501128
30233,YbFe2,0.091546302
30234,FeSi2,-0.443565733
30235,ZrFe2,-0.283244403
30236,Zn13Fe,-0.024564407
30237,SmFe2,0.020585583
30238,Zr4Fe4Si7,-0.748828725
30239,Tl2Fe3S4,-0.665606143
30240,Th7Fe3,-0.124896416
30241,Fe3N,-0.166560906
30242,Y5(FeTe)2,-0.659915676
30243,Fe3P,-0.359600778
30244,Fe3O4,-1.747872468
30245,TlFeO2,-1.301447437
30246,K2MnSO4F3,-2.594181553
30247,FeO,-1.255275556
30248,FeRh,-0.048988835
30249,HoFe2,-0.101305165
30250,Yb(FeO2)2,-2.365530918
30251,K2FeO4,-1.512882166
30252,Rb2MnSO4F3,-2.592259812
30253,KFePO4F,-2.6437317
30254,K5FeO4,-1.622695557
30255,Hf(FeGe)6,-0.233097684
30256,Sc(FeGe)6,-0.277625275
30257,Zr(Fe2Si)2,-0.500903795
30258,Fe11Si5,-0.343727862
30259,Na(FeSb3)4,-0.079443067
30260,GaFe3,-0.129644501
30261,FeTe2,-0.175252307
30262,Nb(FeGe)6,-0.162432131
30263,TiFe2Sn,-0.266135942
30264,FeP2,-0.53976898
30265,GdFe2,-0.071465365
30266,UFeSi,-0.457207999
30267,Pu(FeSi)2,-0.156332425
30268,Fe3Ge,-0.090894431
30269,Fe2Ge,-0.032040845
30270,Sc2FeS4,-1.776581295
30271,Yb(FeGe)2,-0.397864618
30272,FeSn,0.184550575
30273,U(FeGe)2,-0.225389115
30274,Mg(FeGe)6,-0.144685707
30275,NdFeSi,-0.573932205
30276,FeSb2,-0.02331879
30277,ZnFeSb,0.450954363
30278,Nd(FeGe)2,-0.434954555
30279,Ga2FeS4,-0.904097074
30280,Fe2W,-0.025652393
30281,Fe3Sn,0.03969919
30282,Fe4P,0.410017382
30283,U2Fe3Ge,-0.264851338
30284,FeS,-0.584977955
30285,Tb(FeP3)4,-0.598192945
30286,UFe2,-0.111208177
30287,U(FeP3)4,-0.547469895
30288,U6Fe,-0.000587209
30289,In2FeS4,-0.834091733
30290,Y(FeGe)2,-0.458220834
30291,FeGe2,-0.060491562
30292,Pr(FeGe)2,-0.425546526
30293,FeGe,-0.097416504
30294,TaFeP,-0.845946517
30295,U2Fe2Sn,-0.15562319
30296,Fe2N,-0.162874662
30297,Tb(FeSn)6,-0.114922121
30298,Sc2Fe3Si5,-0.693009501
30299,ThFe5P3,-0.71839319
30300,Ta11(FeSe4)2,-0.556651575
30301,Fe7S8,-0.716874213
30302,UFe5Sn,0.006202968
30303,Nd6Fe13Sn,-0.091831056
30304,FePd3,-0.11839909
30305,VGaFe2,-0.298607554
30306,Th(Fe2P)2,-0.685717261
30307,Fe3Si,-0.314433228
30308,KFe2S3,-1.015739353
30309,FeNi,-0.069492102
30310,HfFeGe,-0.547579003
30311,Sm(FeGe)2,-0.44628195
30312,HfFeP,-1.045255762
30313,Ta4FeP,-0.414106638
30314,FePt,-0.23952203
30315,Nb3FeS6,-1.383321201
30316,UFeS3,-1.329560162
30317,ScFeSi,-0.683542516
30318,FeSn2,0.021873562
30319,Fe2Si,-0.373405895
30320,TlFeI3,-0.29857938
30321,PrFe2,0.117168563
30322,PH8N2O3F,-1.430245892
30323,KPH3O4F,-2.197984502
30324,PH10N2O4F,-1.420621338
30325,TiFe2,-0.285430162
30326,LuFe2,-0.174930358
30327,PH5NO3F,-1.679927883
30328,LaFe5H2,-0.077827826
30329,In(FeO2)2,-1.813044524
30330,InFeO3,-1.923565518
30331,YbFeO3,-2.532691501
30332,Fe2O3,-1.885377637
30333,TmFeO3,-2.98760586
30334,NdFeO3,-2.889764792
30335,Fe(IO3)3,-1.031026907
30336,PrFeO3,-2.873551702
30337,Li2TiPO4F,-2.727154097
30338,LiTiPO4F,-3.037241236
30339,LiFePO4F,-2.627846677
30340,FeO2,-1.433875024
30341,MnTl2H2OF5,-2.172539007
30342,LiMnPO4F,-2.641746235
30343,Li2MnPO4F,-2.723799194
30344,Rb2MnH2OF5,-2.555662335
30345,Li2NiPO4F,-2.458469391
30346,NiSnH12(OF)6,-1.776508691
30347,LiVPO4F,-2.848963102
30348,K2VH2OF5,-2.720048519
30349,Li2VPO4F,-2.735593299
30350,LiPWO4F,-2.525832327
30351,Li2FePO4F,-2.651161565
30352,PuFe2,0.312322098
30353,Li2PWO4F,-2.29826708
30354,FeH10N2OF5,-1.561859244
30355,TbFe3,-0.056868706
30356,FeSb,0.020856262
30357,ThFe5,-0.058056805
30358,FeP4,-0.373224968
30359,Fe3Sn2,0.000782483
30360,Hf2Fe,-0.185774504
30361,Ho6Fe23,-0.062548252
30362,U3Fe2Si7,-0.444035848
30363,Fe3Se4,-0.223922005
30364,Fe12N5,-0.167200547
30365,NaFeS2,-0.930383596
30366,Fe2MoP12,-0.37476067
30367,HoFe5,-0.056516052
30368,FePd,-0.066790753
30369,HfFeSi2,-0.687445284
30370,Fe3W3N,-0.144311357
30371,Li3FeN2,-0.519418279
30372,Li4FeN2,-0.191715452
30373,Yb(FeSi)2,-0.518616994
30374,Sr2FeN2,-0.717708046
30375,Ta4FeTe4,-0.391378159
30376,FeWN2,-0.398194364
30377,FePSe3,-0.114384004
30378,La2Fe2S5,-1.682700183
30379,ScFeSi2,-0.676593973
30380,Tl(FeSe)2,-0.224692943
30381,La2Fe2I,-0.498943736
30382,Ti5FeSb2,-0.429754148
30383,TiFe,-0.417880108
30384,HoFe3,-0.092944947
30385,Fe3Pd,0.060184725
30386,ThFe3,-0.062633286
30387,Th2Fe7,-0.067446147
30388,Tm2Fe17,-0.027389772
30389,Y6Fe23,-0.044838908
30390,Sc29Fe6,-0.045000804
30391,Zr3Fe,-0.117703914
30392,Ta2FeO6,-3.041899227
30393,K3FeO2,-1.301654791
30394,Fe7O8,-1.676479852
30395,Sr(FeP)2,-0.830369783
30396,HfFe2,-0.348985608
30397,FeSiRu2,-0.363582322
30398,Nd(FeSi)2,-0.623520807
30399,Sc2FeSi2,-0.776927979
30400,Ta9(FeS3)2,-0.985164344
30401,K6Fe2O5,-1.561671687
30402,Tl(FeTe)3,-0.130217176
30403,RbFe2S3,-1.025376559
30404,SrLiTa2O6F,-3.431048059
30405,KRb2ZrOF5,-3.384400993
30406,TaFeO4,-2.733656187
30407,ZnSiH12(OF)6,-1.955177217
30408,SiNiH12(OF)6,-1.902624213
30409,KZrTl2OF5,-2.96716903
30410,In14Ga3Pt2O8F15,-2.182886265
30411,Na3Ti2P2O10F,-3.012846011
30412,K2SnH2OF6,-2.599517381
30413,RbTiZnOF5,-3.212174413
30414,Tm9(FeGe)10,-0.544684979
30415,NdFeSi2,-0.653271055
30416,K2NaTiOF5,-3.347327774
30417,NaYTiNbO6F,-3.390153206
30418,NaPrTiNbO6F,-3.384131821
30419,NaGdTiNbO6F,-3.384198733
30420,NaNdTiNbO6F,-3.388638359
30421,Nd2Fe17N3,-0.248757895
30422,Ho6FeSb2,-0.554419437
30423,Fe5Si3,-0.379744929
30424,VFe2Si,-0.47803276
30425,Tm(FeGe)2,-0.439869193
30426,Sc3Fe2Si3,-0.753958999
30427,LiNiPO4F,-2.193933968
30428,K3FeO3,-1.729008011
30429,Hf(FeSi)2,-0.659265197
30430,Na3(FeS2)2,-1.04884912
30431,Na3(FeSe2)2,-0.661256577
30432,Fe(NiS2)2,-0.74856226
30433,Nd2Fe12P7,-0.659716135
30434,Sc(Fe2P)2,-0.708379306
30435,Fe2Sn,0.19891364
30436,Fe3NiN,1.783031034
30437,Fe3PtN,1.981273546
30438,Fe3Mo3N,-0.186105001
30439,Na3FeSe3,-0.794325903
30440,Fe6Ni9S20,-0.793248929
30441,Li18Fe5N12,-0.507658523
30442,Fe4N,-0.114622172
30443,RbFeS2,-1.09263038
30444,ScFe2,-0.27572894
30445,Ga4Fe3,-0.176475618
30446,Fe7Se8,-0.132529203
30447,Nb2Hg3S(O2F5)2,-2.568084906
30448,Ta2Hg3S(O2F5)2,-2.707031368
30449,MnFeH4O2F5,-2.183924768
30450,Tl3(FeS2)2,-0.643022498
30451,KHfH2OF5,-3.164579521
30452,FeSnH12(OF)6,-1.839681986
30453,FePH4NO4F,-1.819538753
30454,K3(FeS2)2,-1.128956353
30455,Rb3(FeS2)2,-1.111097638
30456,MnVH4O2F5,-2.323603511
30457,KMnH2OF4,-2.430227996
30458,TiMnH12(OF)6,-2.037778354
30459,MgGeH12(OF)6,-1.952060391
30460,Rb3(FeSe2)2,-0.748194775
30461,K3FeSe3,-0.880586965
30462,TlFeO3,-1.438685391
30463,MnGaH4O2F5,-2.245547562
30464,Gd(FeSi)2,-0.656604401
30465,Nb6Fe16Si7,-0.434678072
30466,Ta6Fe16Si7,-0.467544346
30467,Fe5O8,-1.373019342
30468,MnFe2Si,-0.327600818
30469,K4Ti2PO4F9,-3.382466625
30470,Na7SnS3(O4F)3,-2.3980843
30471,Y4TiSi2(O3F2)3,-3.957513659
30472,K2SbSO4F3,-2.538368206
30473,K3Sb2N2O6F7,-2.165440385
30474,RbSbS(O2F)2,-2.382032971
30475,Fe8N,-0.06969423
30476,K3SbN3(O3F)3,-1.767314187
30477,KTeHOF4,-2.412055189
30478,K14Fe4O13,-1.702797454
30479,KZrH2OF5,-3.096754507
30480,Sr2LiSiO4F,-3.380889614
30481,Na5FeS4,-1.195392694
30482,KSbN(OF)3,-2.060742398
30483,Na2SbSO4F3,-2.486312033
30484,KSnSO4F,-2.297961691
30485,K2Sb2S(O2F3)2,-2.592500185
30486,Na2Gd2MgSi4(O6F)2,-3.409959057
30487,Na5Y4Si4O16F,-3.325250601
30488,K2ScSi4O10F,-3.311964317
30489,Rb4LiZr3H2F19,-3.495354254
30490,Sr2Fe2Se2OF2,-2.342551103
30491,SbSe2S(NF3)2,-1.556721266
30492,LiLa2S2O8F3,-3.132210884
30493,La3NbSe2(O2F)2,-3.377398751
30494,Na5TiP2O9F,-2.835638934
30495,U8FeS17,-1.773555892
30496,LiS2N(O2F)2,-1.893565039
30497,RbUSO6F,-2.942241071
30498,S2XeNO4F3,-1.370729086
30499,K4Sb2N3O9F7,-2.03669363
30500,K9Sm3Si12(O16F)2,-3.207134485
30501,RbTeNO3F4,-2.019287276
30502,Na2U2Si(O4F)2,-3.399200845
30503,NaPr2S2O8F3,-3.100723326
30504,Na3Si3SnO9F,-2.871339298
30505,SINOF2,-1.116882396
30506,LiHo3Ge2(O4F)2,-3.323767032
30507,Na3FeS3,-1.143804537
30508,KNaMg2Si4(O5F)2,-3.243796438
30509,Sr2Fe2S2OF2,-2.531533802
30510,VH10N2(OF2)2,-1.573264422
30511,K2Mn2P2O7F2,-2.754088096
30512,Na2MnPO4F,-2.686356098
30513,KFeO2,-1.873109244
30514,K4Fe2O5,-1.79219201
30515,K17Fe5O16,-1.708455174
30516,SrFeP(O2F)2,-3.029728297
30517,Ho7FeI12,-1.176003677
30518,Y7FeI12,-1.198090072
30519,Gd2Fe2I,-0.518025751
30520,TaFe2,-0.189444226
30521,Li5VP2(O4F)2,-2.843594144
30522,Nd6Fe13Sb,-0.125361577
30523,NbFe2,-0.122315124
30524,Rb2FeI4,-0.924547998
30525,Fe7Mo6,-0.000311192
30526,Np(FeSi)2,-0.413496291
30527,La12Fe2I17,-1.219822473
30528,Pr12Fe2I17,-1.143883471
30529,U(FeP)2,-0.795333856
30530,Ga5Fe6,-0.144425446
30531,FeI2,-0.099982023
30532,Tb2Fe17,-0.008885573
30533,TmFe2,-0.143412857
30534,KSrNb2O6F,-3.224818497
30535,UFe5Si3,-0.435352171
30536,Gd2Fe17,-0.00792835
30537,Na3Fe2P2O8F3,-2.64793257
30538,La(FeP3)4,-0.623156912
30539,Zr6Fe23,-0.169286121
30540,Pr6Fe13Pb,-0.059160193
30541,TbFe2,-0.061762524
30542,LiZr3H18N4F19,-2.311328177
30543,Fe13Ge3,-0.064072508
30544,UNiH14O9F4,-1.86712049
30545,UFeGe,-0.322039929
30546,Ga2Fe2S5,-0.781999283
30547,Yb(Fe2Ge)2,-0.212847396
30548,GaFe2Ni,-0.005856154
30549,FeSbPt,0.222071501
30550,YbFeGe,-0.299629462
30551,FeNiN,-0.096988804
30552,FeNiMo,0.564146667
30553,TaFeSb,0.602067487
30554,ZnFePb,0.925386973
30555,KFeP,0.696287421
30556,ScVFe,0.674935427
30557,Mg2NbFe,0.66970061
30558,KFeTc2,1.490489158
30559,Na2SrFe,0.967054085
30560,FePbW2,0.867386662
30561,NaTeH6O6F,-1.606005373
30562,RbMnH2OF4,-2.432018067
30563,VFe2Sn,0.044017747
30564,Ga3Fe,-0.230070812
30565,FeSnRu2,0.265491793
30566,Fe6Ge5,-0.091211511
30567,Gd(FeGe)2,-0.435811047
30568,Fe2Re3,-0.005039305
30569,FeSiGe,-0.191242943
30570,Hf6Fe16Si7,-0.551664863
30571,U6Fe16Si7,-0.384657447
30572,U4Ga12Fe,-0.211854026
30573,NaInH8(NF3)2,-1.73992456
30574,Pr6Fe13Ge,-0.075076243
30575,InH5NOF4,-1.771525869
30576,TiFeH2,-0.34543636
30577,SnH2N2O3F2,-0.961347663
30578,Fe2Mo4N,-0.112704978
30579,FePt3,0.080977558
30580,GaFeO3,-2.063540175
30581,Sb3S2XeN(O2F9)2,-2.144555324
30582,K2Fe2P2O7F2,-2.359594782
30583,GdFe5P3,-0.710561544
30584,KS2N(O2F)2,-1.920098225
30585,Li(FeGe)6,-0.185855364
30586,Yb6Fe23,0.079815641
30587,Tm2Ga8Fe,-0.432263875
30588,Np(FeGe)2,-0.005674943
30589,Fe8N3,-0.15416415
30590,Fe2RhS4,-0.732627061
30591,Yb22Fe7S40,-1.533370924
30592,Tl2Fe3Se4,-0.283076752
30593,Fe2SnS4,-0.616738012
30594,La3Fe2S7,-1.845551692
30595,Ti(FeSe2)2,-0.477573854
30596,Yb2FeS4,-1.460987407
30597,Na3Sm17Si12(O25F)2,-3.657611758
30598,RbPHO3F,-2.504249104
30599,TiNbTl(O2F)2,-3.025232748
30600,LiMgSO4F,-2.177367278
30601,K8Ti5P2(O4F11)2,-3.439240101
30602,Fe2S,-0.25962033
30603,Fe7S12,-0.684742817
30604,K3P2H(O3F)2,-2.649243054
30605,K2NaNb(OF2)2,-2.999454108
30606,YbNaTiNbO6F,-3.173861705
30607,Fe24N11,-0.148341412
30608,Fe2Te3,1.36252084
30609,TiZnH12(OF)6,-2.000170009
30610,Pr(FeSb3)5,-0.152934243
30611,Yb9(Fe3S10)2,-1.42757419
30612,K3SiN(OF2)3,-2.757414625
30613,Ga2FeO4,-2.132620476
30614,TiTlWO5F,-2.595608602
30615,K2NaVOF5,-3.048531631
30616,KLiPH2O4F,-2.393033168
30617,Rb2KMo(OF)3,-2.572797416
30618,Fe35O36,-1.605360867
30619,Na3V2P2O8F3,-2.839673247
30620,Sr5La3Mn8(O2F)8,-2.993209415
30621,RbNiW(OF)3,-2.286511879
30622,Na3V2P2O10F,-2.680137972
30623,NaMg3Si4O11F,-2.922970914
30624,La(FeP)2,-0.992946461
30625,K3ZrH2S(OF)5,-2.813150009
30626,Na2TeHSO5F3,-2.224821116
30627,K3NbHOF7,-3.076885355
30628,Sn2H2SO5F2,-1.979602425
30629,Zr2H16SN3(O2F3)3,-2.00454997
30630,Na2Sr6ZnFe6F34,-3.346031333
30631,SnPH5NO4F,-1.714962872
30632,K3H3S2(O4F)2,-1.663967767
30633,K2Na2Sb2H6O3F10,-2.35327408
30634,RbTeHOF4,-2.417155291
30635,Fe21O32,-1.15196142
30636,Nb3ZnFe3(O6F)2,-2.404660177
30637,Sr5La3Mn8(O5F)4,-2.863376123
30638,GeH8N2OF6,-1.645911966
30639,K2TiH2O3F4,-2.63488485
30640,TiH12N2(O2F3)2,-1.712127445
30641,K4Ti2H2O5F8,-2.801919173
30642,Fe2GeSe4,-0.116803352
30643,Fe13O14,-1.376938872
30644,Fe11O12,-1.694396335
30645,Fe17O18,-1.686919015
30646,FePH5NO4F,-1.095638068
30647,Fe15O16,-1.654974013
30648,Fe23O25,-1.692837881
30649,Fe10O11,-1.706184489
30650,Fe7O9,-1.614150844
30651,Fe8O9,-1.67451935
30652,Fe38O39,-1.679151469
30653,Fe43O64,-1.794357096
30654,K2NaMo(OF)3,-2.580551623
30655,InH7N2OF4,-1.494165318
30656,KPH3O3F,-2.010314098
30657,Fe21O23,-1.698971709
30658,PH4N(OF)2,-1.807675682
30659,K2Zr2ZnH12(OF2)6,-2.47700937
30660,TeH9SN2O5F3,-1.478397837
30661,K6Zr3H8(OF)12,-2.486937951
30662,ZrH6NOF5,-2.256790247
30663,K3ZrHS(OF)5,-2.793364569
30664,Zr4H22N4O3F20,-2.073420067
30665,RbFeSe2,-0.660673763
30666,LiPH4NO3F,-1.868552206
30667,NaUHOF5,-3.026913505
30668,GaH15N4(OF3)2,-0.999355617
30669,K2TeH6(O3F)2,-1.664673545
30670,K3NaP2(O3F)2,-2.784498641
30671,ZnInH14O7F5,-1.735438789
30672,TiH2N2OF4,-1.189667138
30673,GaH12N3(OF2)3,-1.379687001
30674,NiSn2H12(OF)6,-1.745991209
30675,MnTlH2OF4,-2.189996536
30676,H12WN3(OF)3,-1.201663356
30677,MoH8N2O5F2,-1.193543221