id,Composition,FormationEnergy
21567,Tm(CoGe)2,-0.593327741
21568,GdCo9Si4,-0.202058084
21569,DyGaCo,-0.490046254
21570,Sr8Co8O23,-2.061986573
21571,Zr4In5Co2,-0.353910953
21572,Hf2Co3Si4,-0.767735573
21573,Zr9(In2Co)7,-0.307955348
21574,Cs2CoF6,-2.518475882
21575,CsCoF3,-2.553908574
21576,Na10Co4O9,-1.51801296
21577,La4(CoO3)3,-2.876543456
21578,PrGaCo,-0.254724637
21579,SmGaCo,-0.274282802
21580,MnGa2Co,-0.032576254
21581,NbCrCo,0.830582515
21582,CoReGe2,0.521137702
21583,TlCoW,1.330059008
21584,KSc2Co,0.945776079
21585,SrZrCo,1.089873695
21586,TlCoMo2,0.665813856
21587,LaCoTc2,0.594225629
21588,TaCoSn2,0.602632981
21589,InCoSi2,0.554255339
21590,CoSiO4,-2.022162607
21591,GaFe2Co,-0.036111935
21592,Tm10In20Co9,-0.298717313
21593,ErCoO3,-2.687255138
21594,Nb2Co4O9,-2.140547134
21595,K4(CoO2)7,-1.363616811
21596,Na5Co2O5,-1.569594425
21597,U4Ga12Co,-0.232680769
21598,Mg2CoH5,-0.348622882
21599,UCo5Sn,-0.097145475
21600,Zr2CoH5,-0.513078524
21601,Sr2CoO3,-2.260360366
21602,Co2Mo4N,-0.180729747
21603,Pr4MgCo,-0.073987786
21604,Co3TeO6,-1.466373042
21605,SrCo12O19,-1.404525127
21606,TbCoSn,-0.479805975
21607,Tm2In8Co,-0.272835564
21608,Sm6InCo2,-0.206002586
21609,Co(IO3)2,-0.995613206
21610,GdGa2Co,-0.522646778
21611,Cs7Co4F15,-2.729502615
21612,Ta(CoTe)2,-0.313229542
21613,Co(NiS2)2,-0.754023464
21614,Eu(CoSi)2,-0.630086679
21615,La3Co4Sn13,-0.395927961
21616,Sm2(InCo3)3,-0.0250793
21617,Ta6Co16Ge7,-0.308964086
21618,Zr6Co16Ge7,-0.455873639
21619,Hf6Co16Ge7,-0.472376695
21620,Ti6Co16Si7,-0.603872799
21621,Zr6Co16Si7,-0.650343215
21622,Hf6Co16Si7,-0.675572385
21623,Co2SbTe,-0.108369283
21624,Ti7Co3N10,-1.152438033
21625,Co2RhS4,-0.790942442
21626,Cr2CoSe4,-0.225457543
21627,Fe2CoSe4,-0.005735546
21628,CoPS3,-0.611204103
21629,TmCoO3,-2.693194347
21630,YbCoO3,-2.232826071
21631,Li(CoO2)8,-1.223558501
21632,Na(CoO2)8,-0.984956103
21633,K10Co4O9,-1.464201425
21634,Li2Co4O5,-1.379579577
21635,Co7(RuO6)2,-1.363771203
21636,V5CoO15,-1.958893729
21637,Co7Re17O48,-1.845200344
21638,Co9Ru3O16,-1.374049167
21639,Sr12Co10O27,-2.250652168
21640,Li4(CoO2)7,-1.552691963
21641,CoSiO3,-2.487440319
21642,Sr5(CoO3)4,-2.243413181
21643,Co5(P2O7)4,-2.171219768
21644,RbCoO2,-1.462303278
21645,Co6Te5O16,-1.461930268
21646,Co6P7O24,-2.280754911
21647,Co7(SbO6)2,-1.573868939
21648,Li20Co21O40,-1.724876829
21649,Li2(CoO2)3,-1.583924637
21650,Th(CoSi)2,-0.803249268
21651,Nb3CoS6,-1.383019207
21652,Li9Co9O17,-1.662526308
21653,Sr(CoGe)2,-0.425842126
21654,LiCoS2,-1.004078726
21655,ZrCoO3,-2.739888394
21656,Co6O5F7,-1.782655657
21657,Rb6Co2O7,-1.513954822
21658,Co21Cu3O32,-1.339585168
21659,Co5CuO8,-1.309120892
21660,Co11CuO16,-1.27056624
21661,Mn2CoO6,-1.559595919
21662,Mg2Co7O12,-1.671667332
21663,Co3TeO8,-1.262187647
21664,MgCoO3,-1.880282867
21665,FeCoO4,-1.246292852
21666,Fe(CoO3)2,-1.173564516
21667,Co3SbO8,-1.344588219
21668,Co2NiO6,-0.928843828
21669,MnCoO4,-1.408381912
21670,Co5SbO12,-1.246359635
21671,Rb2CoO3,-1.505073269
21672,CoSnO3,-1.781258145
21673,FeCo3O8,-1.18950679
21674,V5CoO12,-2.258110005
21675,MnCo3O8,-1.271275714
21676,NbCo3O8,-1.654801032
21677,Mn3CoO8,-1.47323275
21678,Li3Co11O14,-1.447205368
21679,Sr21Co14O43,-2.350882535
21680,Co25Cu11O48,-1.240994455
21681,Li9Co13O28,-1.563418408
21682,Li9Co15O28,-1.548858111
21683,Fe19Co5O32,-1.745201465
21684,Co2O3F,-1.358822994
21685,Co6OF11,-2.262203608
21686,Mn(CoO3)2,-1.336541306
21687,Co3OF5,-2.13826091
21688,Co2OF3,-2.021274669
21689,Li2CoO3,-1.671060027
21690,Li4CoO4,-1.787471111
21691,Co3(OF2)2,-1.873977913
21692,CoP4O11,-2.452636529
21693,Sr3Co3O8,-2.105341577
21694,Co3O5F,-1.268466337
21695,LiCo5O8,-1.41743689
21696,CoOF,-1.661978914
21697,Co4OF11,-2.015805951
21698,Li4Co13O28,-1.300473193
21699,Li17(Co4O9)2,-1.745533956
21700,Sr3(CoO3)2,-2.336086452
21701,Li8(CoO2)5,-1.736313092
21702,Li5(CoO3)2,-1.770902343
21703,Li(CoO2)3,-1.386957242
21704,Li3(CoO2)4,-1.580794771
21705,K(CoO2)2,-1.507523237
21706,Na6CoO4,-1.470352075
21707,LiCoF3,-2.621770025
21708,Li7(CoO3)2,-1.833385292
21709,Co3(O2F)2,-1.46948925
21710,HfCoO3,-2.861612537
21711,LiCo15O16,-1.319213412
21712,Mn(CoO2)2,-1.591853027
21713,Li13Co15O28,-1.655233545
21714,Li5(CoO2)8,-1.586511131
21715,Fe3Co5O16,-1.19497785
21716,ScCoO3,-2.564757591
21717,InCoO3,-1.57474095
21718,CoPbO3,-1.226357521
21719,Eu2CoO4,-2.608692934
21720,TlCoO3,-1.119237918
21721,FeCo9O20,-1.133732069
21722,Li4Co7O16,-1.433480675
21723,Lu2Co2O7,-2.476596509
21724,Co(NO3)4,-0.873462656
21725,Ta2Co4O9,-2.279352533
21726,In2Co2O7,-1.528992592
21727,Li14Co13O28,-1.74396125
21728,Na4Co2O5,-1.522148364
21729,Er2Co12P7,-0.80699919
21730,Co4(P2O7)3,-2.215771663
21731,ZrCoP,-1.151950349
21732,Na3(CoO2)2,-1.447544779
21733,Co6O7F5,-1.572106741
21734,Na2CoO3,-1.457963355
21735,Co3P4O15,-2.075131216
21736,Li21(Co4O9)2,-1.7433808
21737,Li21(CoO4)4,-1.932863224
21738,Li4(CoO2)9,-1.437145475
21739,Co5SnO12,-1.161753751
21740,Na14Co2O9,-1.476193682
21741,Ti2CoIr,-0.63040763
21742,Ti2CoRe,-0.435690768
21743,Sc2CoIr,-0.717711051
21744,Er4Ga16Co3,-0.495675971
21745,Ti2CoTc,-0.502953021
21746,Er8Ga3Co,-0.415113565
21747,Pm2CoIr,-0.30855845
21748,Ti2MnCo,-0.374836907
21749,Co(NiO2)2,-0.837722781
21750,CoTe2O5,-1.464635027
21751,Ho2CoOs,-0.14506283
21752,Hf2CoIr,-0.657550479
21753,NbZnCo2,-0.153011595
21754,Hf2CoRe,-0.406403792
21755,Zr2CoTc,-0.359558402
21756,Mn2CrCo,-0.040358542
21757,Dy2Co3Ge5,-0.582911835
21758,HfScCo2,-0.398505779
21759,Tm2CoOs,-0.21426593
21760,Tm2CoRu,-0.332972305
21761,Tm2CoIr,-0.590762344
21762,Lu2CoRu,-0.373474363
21763,LuZrCo2,-0.271889835
21764,VCo2Ge,-0.228722569
21765,TiMnCo2,-0.27179377
21766,TiInCo2,-0.230809204
21767,Ga2CoRu,-0.29688537
21768,LuCo2Sn,-0.319065307
21769,TaZnCo2,-0.22191515
21770,TiZnCo2,-0.348412807
21771,Hf2CoTc,-0.489613198
21772,HfZnCo2,-0.322496329
21773,Co2(SnTe)3,-0.266663371
21774,Er2(Ga3Co)3,-0.477720637
21775,Gd4Ga16Co3,-0.505307264
21776,Gd2(Ga3Co)3,-0.478363794
21777,Sc2CoOs,-0.368862462
21778,LiTm2Co,-0.115948439
21779,LiCo2Si,-0.412802075
21780,Ti2Co12P7,-0.717869989
21781,Sc2CoRu,-0.46868755
21782,ScGaCo2,-0.434411094
21783,V3Co5O16,-1.607316117
21784,Li3Co13O16,-1.423812564
21785,Zn5Co19O32,-1.495335419
21786,V3CoO8,-2.230861647
21787,Li4Co5O12,-1.495301612
21788,CrCo3O8,-1.306193294
21789,Co2SbO6,-1.394002955
21790,Li3CoO3,-1.804763872
21791,Na3(CoO2)5,-1.494405528
21792,Cr3(CoO6)2,-1.505368671
21793,DyCoSi2,-0.786684815
21794,HoCoSi2,-0.781563741
21795,Na2CoS2,-0.999354487
21796,Rb2CoS2,-1.012754837
21797,K2CoSe2,-0.735724524
21798,Rb2CoSe2,-0.715202527
21799,Cs2CoSe2,-0.728830961
21800,Li(Co3P2)2,-0.646410038
21801,LaCo5P3,-0.801050673
21802,ScCoTe,-0.792742338
21803,LaCoTe,-0.737920511
21804,Tm6GaCo2,-0.315889112
21805,Tm2Co3Si5,-0.76476755
21806,Zr2CoOs,-0.420538755
21807,Yb2Co2O5,-2.281869523
21808,Zr2Co12P7,-0.785690717
21809,SmCoSi3,-0.670503971
21810,Hf9CoMo4,-0.174894574
21811,Lu2CoRh,-0.626510526
21812,LuCoGe2,-0.554025212
21813,Nd2Co12P7,-0.744826975
21814,Mn2Co2O5,-1.211018093
21815,Ho6CoTe2,-0.660080138
21816,Hf4Co4Si7,-0.791547145
21817,Ho3(In2Co)2,-0.239712154
21818,Hf4Co4Ge7,-0.555424913
21819,Ho2Co3Si5,-0.769922684
21820,Ho4Ga16Co3,-0.505360609
21821,Pr2Co12P7,-0.727900727
21822,Tm2CoCu,-0.242021994
21823,Tm2Co12P7,-0.808995873
21824,SmGa2Co,-0.533955705
21825,TmLuCo2,-0.234729134
21826,Tb2Co12P7,-0.797291193
21827,TmHfCo2,-0.283559633
21828,Nb4Co4Si7,-0.679848882
21829,Er2Ga8Co,-0.474749975
21830,LaCoN3,-0.794907744
21831,Sc3Co2Si3,-0.835410191
21832,Sc2CoSi2,-0.840998238
21833,Li4Co15O28,-1.39721124
21834,TlCoF3,-2.235945507
21835,Ti2GaCo,-0.203487861
21836,Ti2CoSi,-0.3586141
21837,Ti2CoGe,-0.270779161
21838,Zn(CoO2)2,-1.50815919
21839,Zn(CoO2)4,-1.271832993
21840,MgCo4O9,-1.19174387
21841,Zn(CoS2)4,-0.698336339
21842,Mg(CoS2)4,-0.819972804
21843,MgCo2S5,-0.848108241
21844,Co(SiO3)2,-2.377128579
21845,V2CoO7,-1.817532878
21846,Mg(CoO2)4,-1.506034249
21847,MgCo2O5,-1.475678145
21848,ZnCo2S5,-0.647758732
21849,Nb2(CoO3)3,-2.074193409
21850,Zn(CoN)2,0.341761795
21851,Y2Co2O7,-2.443536674
21852,MgCoF4,-3.006052657
21853,Mg(CoN)2,0.003017498
21854,Nb2Co2O9,-1.930076914
21855,ZnCoO2,-1.401431075
21856,Mg2CoN2,-0.544823924
21857,ZnCoF6,-2.155449477
21858,MgCoF6,-2.619644571
21859,ZnCoO3,-1.268024352
21860,Mg(CoS2)2,-0.861926573
21861,Li(CoS2)2,-0.76166511
21862,Y(CoS2)2,-1.059087459
21863,Zn(CoS2)2,-0.702783137
21864,Li(CoO2)4,-1.334598618
21865,Zn2CoN2,0.091523118
21866,Zn2Co9O13,-1.295186865
21867,Mg2Co9O13,-1.526707724
21868,ZnCo5O7,-1.265844722
21869,Mg2Co3O8,-1.753717345
21870,ZnCoF4,-2.400111808
21871,YCoF5,-3.392609295
21872,Mg3Co2O7,-2.058821464
21873,Zn3Co2O7,-1.359917328
21874,Mg2Co2O5,-1.835206133
21875,Zn2Co2O5,-1.344984415
21876,YCo3F15,-2.27006915
21877,Ta2CoO7,-2.393977556
21878,MgCo3O7,-1.307334192
21879,CoTe2O7,-1.153014051
21880,CoSb2O7,-1.330562253
21881,CoW2O7,-1.865722933
21882,Zn(Co2O3)2,-1.263869219
21883,Co4(CuO4)3,-0.989056409
21884,Mg(Co2O3)2,-1.549686736
21885,Co(GeO3)2,-1.621392639
21886,ZnCo2O5,-1.134750665
21887,Na2CoP2O7,-2.484165882
21888,CrFeCoNi,0.008164932
21889,Na3Co2(GeO4)3,-1.691282165
21890,Li3Co2(GeO4)3,-1.730050889
21891,NaCo3P3O13,-2.083429966
21892,LiCo3P3O13,-2.083591387
21893,LiCo2P2O9,-2.066980158
21894,TiFeCoGe,-0.459104329
21895,HfGa4Co,-0.251946067
21896,Co2MoS4,-0.671053894
21897,CoSi(CuS2)2,-0.719773984
21898,CoCu2SnS4,-0.638147065
21899,CoCu2SnSe4,-0.228196805
21900,CsHoCoSe3,-1.17401964
21901,V2Co(PO5)2,-2.497434344
21902,Sr2CoWO6,-2.617930702
21903,Sr2CoMoO6,-2.544046525
21904,La2CoIrO6,-2.600870386
21905,LiCoPO4,-2.405006694
21906,CoSe2O5,-1.298828881
21907,Na5CoSO2,-1.333578267
21908,Na3Co2SbO6,-1.824318033
21909,K2Co(SeO3)2,-1.635407884
21910,LiLa4CoO8,-3.256308952
21911,La2MnCoO6,-2.869070937
21912,Na3Co(NO2)6,-1.174983179
21913,Nd2MnCoO6,-2.820173267
21914,LaCoPO,-1.919420517
21915,CoMoO4,-1.851017517
21916,Sr2Co(SeO3)3,-2.013366455
21917,Co2Mo3O8,-1.761007228
21918,Na2Co(Si2O5)2,-2.86597097
21919,NaCoPO4,-2.344317027
21920,SrCo2(PO4)2,-2.604713322
21921,CoTe(PbO3)2,-1.413514476
21922,CoPb2WO6,-1.774045965
21923,K3Co(NO2)6,-1.230735056
21924,CoSeO3,-1.31916813
21925,Na2CoGeO4,-1.936791072
21926,Co2Si(P2O7)2,-2.543884536
21927,Sr2UCoO6,-3.145750072
21928,Fe4Co3(PO4)6,-2.314315201
21929,Na4Co7(PO4)6,-2.298690791
21930,Cr4Co3(PO4)6,-2.449427545
21931,SrCoP2O7,-2.790466329
21932,CoPO4F,-1.986877969
21933,CoP2(H4O5)2,-1.846274091
21934,LiCo(WO4)2,-1.995690755
21935,CoH8(IO5)2,-1.210062485
21936,Co(HO)2,-1.180165715
21937,LiCo2P3O10,-2.423915159
21938,Sr2CoReO6,-2.49660714
21939,LiCoP2O7,-2.387661246
21940,K2Co2(SO4)3,-2.074148952
21941,CoHO2,-1.376679084
21942,Li4Co(PO4)2,-2.610574733
21943,Li2CoP2O7,-2.519800321
21944,LiCo6P7O24,-2.336967624
21945,Li2Co(PO3)4,-2.536226649
21946,LiCo3(P3O10)2,-2.317805259
21947,LiCo2P5O16,-2.390801059
21948,Li3Co(PO4)2,-2.487748523
21949,LiCo(PO3)4,-2.462026133
21950,LiCo(PO3)3,-2.527497553
21951,Li3Co3(PO4)4,-2.314870099
21952,Li3Co2(PO4)3,-2.378467942
21953,LiCo2(PO4)3,-2.097700381
21954,Li4Co5(P3O11)2,-2.39739868
21955,Li3Co2P5O16,-2.522494823
21956,Li14Co9(P2O7)8,-2.491862854
21957,Li6Co5(P2O7)4,-2.461220739
21958,CoSeO4,-1.263421481
21959,K4Rb2Co2O5,-1.448056733
21960,K2Na4Co2O5,-1.505805728
21961,Rb2Na4Co2O5,-1.486560613
21962,Co7P6(HO6)4,-2.128772234
21963,Ta4Co2PdSe12,-0.701195177
21964,CoCuP2O7,-2.147447952
21965,K2CoSiO4,-2.367846124
21966,Li2Co3(P2O7)2,-2.378600969
21967,Na2Li3CoO4,-1.833285948
21968,Co3P2(H2O5)2,-1.931507729
21969,Co2P2H4O9,-1.972601213
21970,Co2PHO5,-1.977051333
21971,CoP2PbO7,-2.378655077
21972,Cs2CoSiO4,-2.339717454
21973,YbCsCoSe3,-0.996555384
21974,LiCoSiO4,-2.37097373
21975,K2Co(PO3)4,-2.575888191
21976,FeCoPO5,-2.187295504
21977,CoNi(PO3)4,-2.374685267
21978,Cs2Co(NO3)4,-1.316021302
21979,CsK2CoO2,-1.290619196
21980,RbNa7(CoO3)2,-1.505958015
21981,Li2Co(WO4)2,-2.162860757
21982,Na3Li3Co2F12,-2.801138011
21983,NaZr2CoF11,-3.613202569
21984,Cs2KCoF6,-2.753950388
21985,Rb2NaCoF6,-2.750480634
21986,KRb2CoF6,-2.746328002
21987,CoTeMoO6,-1.731534249
21988,YbCsCoS3,-1.415789185
21989,CsTmCoS3,-1.62687447
21990,Na2CrCoF7,-2.890104127
21991,SrLiCoF6,-3.152862746
21992,Sr2LiCoN2,-0.646905064
21993,Ho7In(CoGe3)4,-0.677984421
21994,Co3P4PbO14,-2.336362303
21995,Na2FeCoF7,-2.784714833
21996,K6CoMo5O19,-2.179288264
21997,Li2Co(PO4)2,-2.304527582
21998,LiCo5(P2O7)4,-2.204567651
21999,Li9Co3P8O29,-2.505010835
22000,LiCo3P3O11,-2.304896279
22001,Co3P2H2O9,-2.034583443
22002,SrGd2Co2O7,-2.703417753
22003,CoI(NO)2,-0.40289007
22004,Cs2NaCoF6,-2.741361705
22005,Cs2Co2(MoO4)3,-2.030221012
22006,Nb4Co2PdSe12,-0.702889286
22007,Sr2Co(PO4)2,-2.981072381
22008,Sr2CoTeO6,-2.358759699
22009,Sr3Nb2CoO9,-2.607951651
22010,Dy7In(CoGe3)4,-0.680838567
22011,Yb7In(CoGe3)4,-0.555175233
22012,Cs2Co(PO3)4,-2.586136427
22013,CoH2SO5,-1.739977669
22014,Ti2Co(PO5)2,-2.914818609
22015,Na2Co(NO3)4,-1.264484128
22016,KCo4(PO4)3,-2.249825809
22017,CsEr13(CoI12)2,-1.217482825
22018,CoCu2GeS4,-0.631127625
22019,ZnCoP2O7,-2.356871888
22020,Nb2Co(P2O7)3,-2.705763727
22021,Co(Mo3Se4)4,-0.473041979
22022,LiCo2(PO3)5,-2.446423215
22023,Li2Co3(SeO3)4,-1.529268372
22024,K4CoMo4O15,-2.121507196
22025,K2Co2(MoO4)3,-1.991216397
22026,Li2Co(PO3)5,-2.501928875
22027,LiCo(PO3)5,-2.369939494
22028,Li6Co3P8O29,-2.360602057
22029,Li5Co9(P2O7)8,-2.296559913
22030,Sr4Mn2CoO9,-2.514462482
22031,CoH2(SN)4,0.041696
22032,CoH12SO10,-1.510859176
22033,Co5P4(HO2)10,-1.905182097
22034,CoP4(H5O8)2,-1.981837781
22035,La5CoRe3O16,-2.974632281
22036,CoH8SO8,-1.548768216
22037,CoPH3O5,-1.529150927
22038,CoH14N5O9,-0.948391793
22039,CoPH3O4,-1.684880678
22040,CoH9(NO)6,-0.779891493
22041,Ti3Co3(TeO8)2,-2.111482694
22042,Li3Mn2CoO6,-1.990983016
22043,Li2TiCoO4,-2.519913495
22044,Li3Fe2CoO6,-1.967873095
22045,Li3Fe(CoO3)2,-1.763006664
22046,Li5V3(CoO5)2,-2.189272263
22047,Li2CoNiO4,-1.512977954
22048,CoCu(PO4)2,-1.992710266
22049,Li2Ti(CoO3)2,-2.104845682
22050,Li5Fe3(CoO5)2,-1.896921825
22051,Li2Ti2CoO6,-2.762720836
22052,VCo3(PO4)4,-2.263374832
22053,Li4Co5SbO12,-1.707247583
22054,Li3Mn(CoO3)2,-1.870160932
22055,Cr3Co(PO4)6,-2.21445127
22056,Mn3Co(PO4)6,-2.13021862
22057,Li2Fe(CoO3)2,-1.674482239
22058,Li2Cr(CoO3)2,-1.799848933
22059,Mn3Co(PO4)4,-2.361994163
22060,TiCo(PO4)2,-2.712693969
22061,Li2Co(NiO3)2,-1.281627845
22062,Li2Ti3CoO8,-2.969002848
22063,Li3CoPO5,-2.421853098
22064,Li2Co3SbO8,-1.755268056
22065,Li2Cr3CoO8,-2.051553987
22066,Fe3Co3(SbO8)2,-1.473202083
22067,LiFeCoO4,-1.706410294
22068,Cr3Co3(TeO8)2,-1.598714186
22069,K2Li3CoO4,-1.808412618
22070,Li2MnCo3O8,-1.655099602
22071,LiVCoO4,-2.122710415
22072,Li2VCo3O8,-1.811115216
22073,LiCo3CuO8,-1.222974167
22074,K2Li2CoO4,-1.729656477
22075,Li2Co3NiO8,-1.431913171
22076,LiCoSnO4,-1.862033012
22077,LiCoSbO4,-1.908035268
22078,Li2CrCo3O8,-1.716074658
22079,CoP2WO8,-2.314260557
22080,Mn2Co(PO4)3,-2.292045949
22081,Fe2Co(PO4)3,-2.279558524
22082,Li2FeCo3O8,-1.567671972
22083,Li2CoNi3O8,-1.193729213
22084,Li5Co2Cu3O10,-1.531189925
22085,LiV2CoO6,-2.182511578
22086,Mn2Cr3Co3O16,-1.576557726
22087,Li2NbCo3O8,-1.996306134
22088,Cr3Co3(SbO8)2,-1.650189435
22089,V2Co(HO2)4,-1.837164613
22090,Li3Cr(CoO3)2,-1.979465295
22091,Fe3Co3(TeO8)2,-1.419274924
22092,Co3Cu3(TeO8)2,-1.092680839
22093,Li2Mn3CoO8,-1.959734026
22094,Li4NbCo5O12,-1.80027263
22095,Li2Co2P2O9,-2.198558624
22096,CoSn3(PO4)4,-2.3207808
22097,LiCrCoO4,-1.901438339
22098,Li2Fe3CoO8,-1.774090197
22099,Mn7Co(PO4)12,-2.168595165
22100,Li2Co3SnO8,-1.734285389
22101,Li2TiCo3O8,-1.92085878
22102,Li2CoSiO4,-2.456284257
22103,Li2V3CoO8,-2.346125963
22104,Ti3Co3(SbO8)2,-2.191729228
22105,Li3Co2(SiO4)2,-2.438222859
22106,Li3Ti2Co3O10,-2.254667168
22107,LiTi2Co3O10,-2.111766733
22108,Li3MnCo3O8,-1.788438946
22109,Li2Cr2CoO6,-2.06483574
22110,Li4FeCo9O20,-1.493203469
22111,Li2Fe3Co7O20,-1.372895544
22112,Li6FeCo9O20,-1.551837072
22113,Li6Fe3Co7O20,-1.674631819
22114,Li2Fe3Co5O16,-1.373450495
22115,Li4Fe3Co5O16,-1.59287063
22116,Li3FeCo3O8,-1.68579504
22117,Li2Fe2CoO6,-1.658497918
22118,LiFeCo3O8,-1.435473372
22119,Li2Cr3(CoO4)3,-1.769936962
22120,Li2Fe3(CoO4)3,-1.554508691
22121,Li4Cr3(CoO4)3,-1.93884209
22122,Li3Cr2(CoO4)2,-1.953125019
22123,Li4Fe3Co7O20,-1.468412098
22124,LiCrCo3O8,-1.544187832
22125,Li3Cr3CoO8,-2.130420016
22126,Na2Li2CoO4,-1.729225587
22127,LiCo2CuO6,-1.228897862
22128,LiCr2CoO6,-1.870847968
22129,Li2Co2(SiO3)3,-2.573534824
22130,Li4Co(SiO3)3,-2.705739212
22131,Li2Co2Si2O7,-2.454933861
22132,Li2Co(Si2O5)2,-2.857602633
22133,Li2Co(SiO3)2,-2.687448054
22134,Li4Co2Si3O10,-2.617055874
22135,Li3Fe3CoO8,-1.83882315
22136,LiFe(CoO3)2,-1.506605292
22137,Li5Ti2Co5O12,-2.195030388
22138,Li2Co3(SiO4)2,-2.343410319
22139,Li2FeCo9O20,-1.328440349
22140,Li3CoSiO5,-2.417867163
22141,LiCoGeO4,-1.885045966
22142,Li2Co2SiO6,-2.011732813
22143,Li10Co(SiO5)2,-2.444161337
22144,LiCoNiO4,-1.272430444
22145,Li3Fe2Co3O10,-1.685175388
22146,Li10Fe5Co3O16,-1.880040895
22147,Li3Co2(GeO4)2,-1.983764965
22148,Li6CoOF6,-2.879867511
22149,NaCo2P3O10,-2.393452387
22150,Li7Co(OF)3,-2.353326398
22151,Li3CoO2F,-2.131998389
22152,LiCo2OF3,-2.256483989
22153,Li6Fe5CoO12,-1.983082232
22154,LiCo5O3F5,-1.972215071
22155,Li4Co3OF8,-2.58413947
22156,Li5CoOF5,-2.830419647
22157,Li4Co3O3F4,-2.315546025
22158,Li6Co3Ni5O16,-1.344579979
22159,NaCo3O4,-1.42220727
22160,Li3Co5OF11,-2.470416564
22161,Li5CoO3F,-2.02841419
22162,Li3CoOF3,-2.622551293
22163,Li3Co3NiO8,-1.52179964
22164,Li3Co4O4F3,-1.97575436
22165,LiCo7O7F,-1.509214289
22166,Li5Co5O9F,-1.771911744
22167,LiCo5O7F,-1.576272924
22168,Li8Co(O2F)2,-2.200267205
22169,Li2CoO2F,-2.245936823
22170,Li6Co2OF11,-2.670512675
22171,Li3Co13O5F19,-2.15669239
22172,Li2CoOF2,-2.506961593
22173,Li6Co5Ni3O16,-1.451358914
22174,LiCo3OF5,-2.259062862
22175,Li2Co3OF6,-2.375091033
22176,Li6(CoO2)5,-1.679066579
22177,Li6Co11(OF12)2,-2.44081416
22178,Li3Co3OF7,-2.538247528
22179,Li4Fe3CoO8,-1.992463768
22180,LiCoOF,-2.169797239
22181,LiCo5O5F,-1.577934488
22182,Na8CoO6,-1.538724547
22183,Li3Co2Cu3O10,-1.302846227
22184,Li10FeCo9O20,-1.717702825
22185,Li4Co7O3F13,-2.33853279
22186,Li5Ti2Co3O10,-2.384318346
22187,LiCoCuO4,-1.27931417
22188,Li8Co3NiO8,-1.674683366
22189,Li3TiCo3O8,-2.063892987
22190,Li8FeCo3O8,-1.758839002
22191,Li2MgCo13O28,-1.310251897
22192,LiV3(CoO6)2,-1.855320436
22193,Li3Co2Si3O10,-2.539475186
22194,Li3CoNi3O8,-1.283974157
22195,Li4V3CoO10,-2.282845885
22196,Li3CrCo3O8,-1.829291598
22197,Li8FeCo9O20,-1.693974568
22198,Li6Co(SiO4)2,-2.545235822
22199,Li2CoSi3O8,-2.772071953
22200,Co29Ge13O56,-1.673339653
22201,Li5CoO4,-1.968273114
22202,Li5Mn5CoO12,-2.008465483
22203,Li6Fe9CoO20,-1.821411324
22204,Li5(CoO2)4,-1.690719581
22205,KLiCoO2,-1.627284437
22206,Li2Co4OF8,-2.363544805
22207,VCo3O8,-1.452678892
22208,Co3WO8,-1.413649438
22209,V2CoO4,-2.231226646
22210,Cr(CoO3)2,-1.359140587
22211,TiCo3O8,-1.636907384
22212,Co3NiO8,-0.942011933
22213,CoSbO4,-1.572628119
22214,Fe2CoO6,-1.318230136
22215,Ti6Co3O16,-2.832589135
22216,Ti(CoO3)2,-1.821701772
22217,Ti2CoO5,-2.990954822
22218,Na2Co6O7,-1.311081076
22219,Li4Fe9CoO20,-1.647708731
22220,Zn3Co9O16,-1.464225196
22221,Co9Cu3O16,-1.193405168
22222,Fe(CoO2)2,-1.542056161
22223,LiCo(SiO3)2,-2.632257436
22224,Li3(CoS2)4,-0.962601114
22225,Li2Co2(SO4)3,-2.067709874
22226,Mg5Co19O32,-1.708049931
22227,Mn2CoO4,-1.827275163
22228,Mg7Co17O32,-1.758940641
22229,LiCo2(PO4)2,-2.276425362
22230,Ti3Mn2Co3O16,-2.095078853
22231,Li14Co2S9,-1.361130359
22232,Li11(CoO4)2,-1.938783827
22233,Li14MgCo13O28,-1.824507865
22234,Li4Ti3(CoO3)6,-2.095884452
22235,Li10Co3Ni7O20,-1.494845925
22236,Li5Fe2Co3O10,-1.855609621
22237,Li2CoGe3O8,-2.127978521
22238,Mg2CoO4,-2.193864513
22239,VCoO4,-1.785656934
22240,Co2HgO4,-1.002230651
22241,Li2CoGeO4,-2.112255887
22242,Li4CoO3,-1.879166734
22243,V2Co3Te3O16,-1.623737978
22244,Mn2Co3Te3O16,-1.444991464
22245,Co2(SO4)3,-1.774035668
22246,LiCo2(SO4)3,-1.908445583
22247,Mn4CoO8,-1.804701483
22248,Mn3V2Co3O16,-1.711983057
22249,Mn3Co3(CuO8)2,-1.207118026
22250,K4Co2O5,-1.524383327
22251,Li5Co7O16,-1.536448876
22252,LiCo3O4,-1.477053938
22253,Li17(CoO4)4,-1.845930903
22254,Li9(CoO4)2,-1.865926224
22255,Li19(CoO4)4,-1.87633704
22256,CoTeO4,-1.389933008