id,Composition,FormationEnergy
34179,K2Ge4O9,-2.188513976
34180,K2Ge2PbS6,-1.099592856
34181,Na2ZrGe2O7,-2.588814282
34182,NaLi3GeO4,-2.246792613
34183,Na2ZrGeO5,-2.707521308
34184,NaV(GeO3)2,-2.275673636
34185,Ho(MnGe)2,-0.475039539
34186,LiV(GeO3)2,-2.29605653
34187,Sr3Li4(GeN3)2,-0.731527576
34188,Sr3MgGeN4,-0.839964029
34189,Tb4Zn5Ge6,-0.477793799
34190,Yb(GeRh)2,-0.880073308
34191,HfGeTe4,-0.463705756
34192,RbSmGeSe4,-1.148402285
34193,Tb2(GePt3)3,-0.785731858
34194,LaGeI,-1.144702116
34195,YbGePd,-0.881805008
34196,K4GeSe4,-1.020968662
34197,Y3H2,-0.463949609
34198,Tl2HgGeTe4,-0.190531961
34199,Pr(GeRu)2,-0.660104168
34200,Ho(GeRh)2,-0.879167716
34201,LiZnGe,-0.242309104
34202,Sc6Ni18Ge11,-0.590059737
34203,Na15SnGe8P,-0.197915804
34204,Tb2InGe2,-0.722994899
34205,Yb4Ge6Rh7,-0.859575021
34206,Np(NiGe)2,-0.348015959
34207,Ho2(GePt3)3,-0.79021069
34208,Sc6Ni16Ge7,-0.605728196
34209,La2GeI2,-1.301053074
34210,Sm3(Ge3Pt2)2,-0.913577924
34211,Y3(Ge3Pt2)2,-0.882177707
34212,Tm(GeRh)2,-0.858236293
34213,Tm(GeRu)2,-0.629005159
34214,Sr2LiInGe2,-0.545782932
34215,YbNiGe2,-0.622792062
34216,Yb(NiGe)2,-0.626969458
34217,Na2GeO3,-2.155805728
34218,Hf6Ni16Ge7,-0.593683491
34219,HoGe2Pt,-0.851418768
34220,Nd2Ge2O7,-3.002776787
34221,Pr(NiGe)2,-0.68502146
34222,Sr11(Ge2N3)2,-0.713861321
34223,Ti6Ni16Ge7,-0.492683057
34224,Li2Ge7O15,-2.163778543
34225,GePb5O7,-1.661661645
34226,Zn2GeO4,-1.980263712
34227,NaTaGeO5,-2.74970639
34228,GeTeRh,-0.496376156
34229,K2Ge2Pb2O7,-1.996447778
34230,Tb3(MnGe)4,-0.429141559
34231,Ni2GeP,-0.351269639
34232,PrMnGeO5,-2.692268253
34233,Y2Ge5Ru3,-0.643954582
34234,La2Ge5Ir3,-0.774585199
34235,La2Ge5Ru3,-0.662769619
34236,Mn2GeS4,-0.84306542
34237,La2GeS5,-1.941670194
34238,Na2TiGeO5,-2.633890234
34239,TbMn5Ge3,-0.036043231
34240,GePbS3,-0.833735555
34241,K2Sn(GeO3)3,-2.13660301
34242,H8PtO6,-1.231050541
34243,ScHO2,-3.013301327
34244,P(HO)3,-1.553124735
34245,NdHO2,-2.941229093
34246,LuHO2,-3.096755383
34247,NaH9O5,-1.447292202
34248,Lu(HO)3,-2.375489635
34249,La(HO)3,-2.313875695
34250,Nd(HO)3,-2.28565271
34251,Te(HO2)2,-1.343315549
34252,TeHO3,-1.40161343
34253,Ta2H4O7,-2.303307646
34254,YHO2,-3.027101772
34255,Sc(HO)3,-2.301543205
34256,Pr(HO)3,-2.27551249
34257,In(HO)3,-1.630224298
34258,LaHO2,-2.999394247
34259,La11(Ni2Ge3)2,-0.682225285
34260,Ge7H18O23,-1.606489477
34261,Nd3(GeRu)2,-0.613522575
34262,LaGeOs,0.917523031
34263,InReGe,0.648327973
34264,ReSnGe,0.946174953
34265,ZrH,-0.385780469
34266,HoH3,-0.714490191
34267,YbH2,-0.672237832
34268,Li10Ge(PO6)2,-2.532092167
34269,YbH3,-0.241066154
34270,ZrGeRu,-0.788496457
34271,La2GeO5,-3.349513443
34272,MnTl2GeTe4,-0.19296247
34273,K2ZnGeO4,-2.064234146
34274,La2(ZnGe2)3,-0.442114646
34275,K(GeSe2)2,-0.489566451
34276,Mn2GeSe4,-0.327180448
34277,Na2ZnGeO4,-2.086608015
34278,V2H,-0.192561856
34279,Yb2Ge4Ru3,-0.579272039
34280,Rb2H4Pt,-0.480176156
34281,K3H5Pd,-0.34693181
34282,K3H5Pt,-0.433774719
34283,Rb3H5Pt,-0.413473139
34284,Li4H6Ru,-0.502991712
34285,Li4H6Os,-0.486451957
34286,Na4H6Ru,-0.345853543
34287,Mg2H6Os,-0.428935314
34288,SrMgH4,-0.482321499
34289,Rb3H5Pd,-0.326526868
34290,Mg2H4Ru,-0.42055761
34291,Mg3ReH7,-0.34262355
34292,Rb2H6Pt,-0.487199401
34293,Yb4Mg3H14,-0.52533966
34294,K2H4Pd,-0.378815429
34295,Na2H4Pd,-0.336059989
34296,NaH2Pd3,-0.234567509
34297,K2H6Pt,-0.498566061
34298,Mg3MnH7,-0.338555417
34299,Rb3ZnH5,-0.293142725
34300,Li5H9Pt2,-0.502836734
34301,Sr(H2N)2,-0.769002997
34302,Li2H2Pt,-0.547760139
34303,Sr2MgH6,-0.527561835
34304,Ti2NiH,-0.330203035
34305,Mg7TiH16,-0.228135549
34306,Li2H2Pd,-0.482935881
34307,Ti3SnH,-0.421608958
34308,Rb2H4Pd,-0.363591898
34309,LiNbGeO5,-2.629597358
34310,Na12SnGe8,-0.158702188
34311,La4(GeS4)3,-1.750705863
34312,NaGeSbO5,-2.098393461
34313,Tl2GePbS4,-0.787429258
34314,Ni5Ge2P3,-0.373157253
34315,RbGeSbO5,-2.120172643
34316,NaLiGe4O9,-2.188921526
34317,NaLuGeO4,-2.921934532
34318,La3Zn3Ge2SbO14,-2.670645481
34319,Th(GeRu)2,-0.701039536
34320,Zr6Ni16Ge7,-0.582802346
34321,Nb6Ni16Ge7,-0.363026523
34322,Yb4MgGe4,-0.61272594
34323,Zr10HN8,-1.657527396
34324,Li5GeP3,-0.534168485
34325,Ti20H2N17,-1.739919287
34326,Zn2GeS4,-0.969608553
34327,Rb2Sn(GeO3)3,-2.101867638
34328,Ge3Pb11O17,-1.704846486
34329,K2Ti(GeO3)3,-2.398478352
34330,Rb14Si6Ge4O17,-2.234684487
34331,Rb12Sn8GeO4,-0.867550129
34332,Yb8LiGe13,-0.312675806
34333,HfGe2Rh,-0.636379401
34334,LaTlGeSe4,-0.979212157
34335,TiH,-0.437364976
34336,Na2H6Pt,-0.452068989
34337,K3ReH6,-0.127100442
34338,Sr2HN,-0.74717008
34339,Zr(TiH2)2,-0.556932678
34340,KGeNO,-1.294094527
34341,Li10Ge(PSe6)2,-0.813927334
34342,Li10Ge(PS6)2,-1.269146671
34343,Nb6HI11,-0.487533798
34344,PH3,0.051533047
34345,H7O4,-0.58629619
34346,HI,-0.063692195
34347,Mg2H6Ru,-0.430739512
34348,Li3H4Rh,-0.490405972
34349,Na2H4Pt,-0.451275688
34350,Mg2NiH4,-0.32939142
34351,K3GeH2NO3,-1.522027827
34352,Rb2ZnH4,-0.312491209
34353,Yb3H8,-0.483950537
34354,Na3H7Ru,-0.351811173
34355,Sr6Mg7H26,-0.462596138
34356,Na2ZnGe2(HO2)4,-1.86081659
34357,LaMg2H7,-0.446066648
34358,La2(GeO3)3,-2.843817997
34359,Y3Ge13Ru4,-0.438673323
34360,TeH5O6,-1.223508046
34361,Na2GeH12S2O7,-1.411520234
34362,K3H3Pd,-0.292721074
34363,Sr2Mg3H10,-0.43892199
34364,Li(H3N)4,-0.53409124
34365,Na3H6Ir,-0.460294371
34366,K4GeH4N2O3,-1.236560726
34367,Na4GeH28(Se2O7)2,-1.281155973
34368,Na2GeH16Se3O8,-1.247028
34369,Li3H6Ir,-0.542560628
34370,Tl2GeS3,-0.748635355
34371,Li3H6Rh,-0.494202011
34372,Na3GeH11O9,-1.610370108
34373,Yb19(Mg4H27)2,-0.589220194
34374,Ni2H,-0.05323912
34375,Sm2Ge2O7,-3.016983537
34376,Sm2Ge5Ru3,-0.651033877
34377,Nb2Ge2O7,-2.418720064
34378,UGeO4,-2.881161881
34379,Sc2Ge2O7,-2.972130582
34380,Na2SnGe2(HO4)2,-2.003806436
34381,Rb4Ge9(H3N)5,-0.397536868
34382,Li10Zn3(GeO4)4,-2.157295118
34383,LiVGeO5,-2.259613663
34384,Li2V2SiGeO10,-2.472257757
34385,Li4V2SiGeO10,-2.581480094
34386,Ge2(WO3)9,-2.072886716
34387,SiGeO3,-2.492955717
34388,Li7VGeO8,-2.375462724
34389,VGeO4,-2.193676435
34390,K2Ge2O5,-2.16562973
34391,Na2Ge2O5,-2.151501243
34392,Sr3GeO5,-2.930235555
34393,Li3Zn3(Ge3O8)2,-2.092764443
34394,Li2Zn3(Ge3O8)2,-2.113301186
34395,TiGeO3,-2.697979495
34396,Li2Ge2O5,-2.259800138
34397,ZrGeO4,-2.981861394
34398,NaSc(GeO3)2,-2.655755909
34399,Li2ZnGeO4,-2.237104021
34400,Lu2Ge2O7,-3.106656876
34401,Rb2Li2GeO4,-2.138299118
34402,SmNiGe3,-0.598830785
34403,YNiGe3,-0.579039886
34404,ThH3,-0.520192291
34405,KNdGeS4,-1.641337532
34406,Rb3GePSe7,-0.684223985
34407,Pm2ZnGe,-0.52968622
34408,PmH3,-0.629124483
34409,PmH,-0.478071041
34410,Pm2GePd,-0.745348358
34411,Ho2MgGe2,-0.766190919
34412,NbGeRu2,-0.268157271
34413,MnGeRu2,-0.266568907
34414,Mg3TcH7,-0.374931925
34415,MgGeIr2,-0.328346115
34416,VTc2Ge,-0.305378501
34417,Mn2VGe,-0.267630877
34418,VGeRu2,-0.358683724
34419,LuH3,-0.619807361
34420,TiGeRu2,-0.69907969
34421,LiPrGe2,-0.666405816
34422,YbLi2Ge,-0.439848026
34423,Y2MgGe2,-0.787056271
34424,YbGeO3,-2.783267876
34425,Yb2HgGe,-0.699672766
34426,TiMn2Ge,-0.326464311
34427,Tb2MgGe2,-0.777868883
34428,KYGeS4,-1.633546699
34429,Ge7H8N2O15,-1.671603879
34430,RbTaGeS5,-1.263786558
34431,SmH3,-0.630274594
34432,Na3H7Os,-0.366773437
34433,NaHo4Ge2O11,-3.148848201
34434,KIn(GeO3)2,-2.143603914
34435,ScGeRu,-0.79618891
34436,SrGe4O9,-2.355900914
34437,ZrGeSb,-0.595151825
34438,ZrNiGe,0.043382472
34439,VGePt,-0.135552102
34440,ZrGePt,-0.380804185
34441,K2GeSe3,-0.873446039
34442,ZnH,0.346190056
34443,Tl3H,0.41824405
34444,ZrH3,-0.371431669
34445,Tc3H,0.672997432