id,Composition,FormationEnergy
5220,UHg4(AsCl3)2,-1.15320062
5221,K4Sr2SnAs4,-0.685197358
5222,Yb5Au4,-0.91014661
5223,Rb5Ta(TlAs2)2,-0.438937684
5224,Hg6BiAs4Cl7,-0.701936451
5225,V3Au,0.062232653
5226,BaAu,-0.71831167
5227,CdHg4(AsI2)2,-0.278043372
5228,Yb2Au,-0.734461466
5229,TiHg6As4Cl7,-0.848299724
5230,Ca5Au4,-0.766982221
5231,CuHg3As2Br3,-0.266088976
5232,InHg6As4Cl7,-0.734333057
5233,K2Sm2As2Se9,-0.998820054
5234,SnHg7(As2I3)2,-0.206053483
5235,Ga2Au7,-0.098961688
5236,Cs2CeAsS3Cl2,-1.807078495
5237,Cs2Ga3As5O18,-1.955375139
5238,U2Cu2As3O,-1.09155311
5239,As3H9RhC3(ClO)3,-0.754412148
5240,Ba(InAu)2,-0.566832402
5241,Bi7Mo2(AsO8)3,-1.84870062
5242,BaV4As4O19,-2.166085346
5243,NiAs2S6N4(OF2)8,-1.730184688
5244,Tl8Sb21As19(PbS17)4,-0.627162155
5245,Ca2As4Xe5F34,-2.177711741
5246,Cs12Nb(In2As3)3,-0.456570536
5247,Cs3GeAsSe5,-0.80991097
5248,SrCo2As2(H2O5)2,-1.806239443
5249,Tl2Sn(AsS3)2,-0.668173299
5250,NiAs3H3OF18,-2.25325322
5251,CeFeAsO,-1.777102624
5252,Cu3As2H16C16Br3(NO)2,-0.234218813
5253,As3H9RhC3(BrO)3,-0.634699764
5254,CsCu3As8H24C8(IO2)4,-0.600363335
5255,Ca3InAu3,-0.75571255
5256,TlHg(AsS2)3,-0.538174104
5257,LiTiAsO5,-2.574914052
5258,AsN(OF3)2,-1.901607216
5259,Cu2AsClO4,-1.185920488
5260,K2Fe2As2O9,-1.960547131
5261,CaCuAs2O7,-1.956455521
5262,BAs5(Pb3O10)2,-1.838446331
5263,MnAs2S4(NF6)4,-1.878387309
5264,NaMoAsO6,-1.972844807
5265,NdFeAsO,-1.759952914
5266,Rb2Cr2As2O9,-2.107195852
5267,Gd4Au2O9,-2.813970359
5268,Zn2Cu(AsO4)2,-1.640570929
5269,CuAsPbS3,-0.64243596
5270,TlHg3As2Cl3,-0.680548387
5271,Cu6Hg3(AsS3)4,-0.502568347
5272,AuCl5O18,-0.251728937
5273,Cs7NbIn3As5,-0.465097376
5274,Na2TiAu,0.564762651
5275,Re2AuSe,0.893834093
5276,GdAu,-0.808419132
5277,AsS7IF6,-1.487146723
5278,RbTiAsO5,-2.575857704
5279,Mn3Au,0.310632498
5280,Fe2CuAs2(HO5)2,-1.546732942
5281,Te3Au2,-0.039995717
5282,EuRbAsS3,-1.462840571
5283,EuKAsS3,-1.461116598
5284,TlAs3PbS6,-0.62151125
5285,KTiAsO5,-2.582781388
5286,TeAs(Se2F3)2,-1.528042403
5287,CdAs2C4SN4(OF6)2,-1.503014343
5288,Te4As2S5(OF6)2,-1.740195144
5289,TeAs(SeF3)2,-1.826886563
5290,CuAs2Pb8Cl5O9,-1.563370615
5291,As4Pb8Cl6O11,-1.583381977
5292,BaCuAs2O7,-1.981252223
5293,Te3As2(SF4)3,-1.911426312
5294,Cu2BiAsO6,-1.40132808
5295,Ga4Hg11(AsBr4)4,-0.543053611
5296,TaAsPCl13,-1.420610408
5297,AsXe2O4F9,-0.910605471
5298,CuAs2Pb6Cl7O6,-1.556912563
5299,ZnCuHg4As7S12,-0.382962942
5300,NaCa2Mg2(AsO4)3,-2.558082354
5301,Te5As2Br4O5F26,-2.012629131
5302,In4Au9,-0.130363347
5303,As2Pb14Cl4O17,-1.634921096
5304,Rb3Nb2AsSe11,-0.736244183
5305,Cs3Nb2AsSe11,-0.761450956
5306,K3Ta2AsSe11,-0.728611768
5307,Sn2As2H22C7(ClO2)2,-0.117763963
5308,SrLaTl(AsO4)2,-2.5298383
5309,AsH2C2NCl2O,-0.429898507
5310,Cd10As6HClO25,-1.651361086
5311,SrNd5Fe6(AsO)6,-1.6962804
5312,AsS2N2OF9,-1.408200261
5313,KNb4AsO13,-2.793820848
5314,Te2AsS4N4(ClF2)3,-1.080375003
5315,ZnAs4(HO2)8,-1.404868294
5316,KScAs2(HO4)2,-2.184943447
5317,AsH3CNOF9,-1.862296611
5318,KMg2As2H31O23,-1.181257307
5319,LiAsH2OF6,-2.352240731
5320,Sm6Fe6As6O5F,-1.791256834
5321,U2CuAs2(HO)24,-1.740458865
5322,Sr10Mn5Zn9(AsO)10,-1.305069842
5323,Nd5Fe5As5O4F,-1.777752363
5324,CsScAsO4F,-2.495307319
5325,RbAs2H5O8,-1.633636259
5326,Co8Te(AsO8)2,-1.508230963
5327,Mn7SbAsO12,-2.022962626
5328,AsH6NO4,-1.242631435
5329,KSrAs(H4O3)4,-1.633469857
5330,Cr2AsC10ClO10,-0.805290856
5331,SrNd7Fe8(AsO)8,-1.716398652
5332,Ce8Fe8As8O7F,-1.803018481
5333,NdZnAsO,-1.968758584
5334,As4S11(N6Cl7)2,-0.431683766
5335,Te2As2SI6(OF6)2,-1.410779273
5336,UAsH9O10,-1.861801888
5337,As2PHO6,-1.90951781
5338,Na3AsH24SeO15,-1.435184465
5339,Na3As3(HO5)2,-1.669909112
5340,AsH12C4I3,-0.257970491
5341,K4Cu3As4(HO8)2,-1.690472893
5342,AsHPb4(ClO)4,-1.597677576
5343,RbAs7H24C8N3,-0.089315041
5344,Sr5As5HO18,-2.48122624
5345,Na3AsH22S2O13,-1.409244067
5346,AsH18N3O7,-1.127751448
5347,Be2As(HO)9,-1.779317831
5348,VCu13Sn(AsS8)2,-0.646893844
5349,MgAsH15O11,-1.558580715
5350,Cu3As2H2PbO10,-1.383398393
5351,Na3AsH14SO10,-1.475937054
5352,CaAsH3O5,-2.004073746
5353,Zn2AsHO5,-1.735400948
5354,Ba3As2H14S8O7,-1.415986699
5355,NaAs3H2O9,-1.678110026
5356,SrMoAsH3O8,-1.971561092
5357,Fe4As10PbO22,-1.728228909
5358,Sb2Au,-0.071241207
5359,LiAsH20(C2O)4,-0.436442574
5360,K2Cr2AsHO10,-1.823214087
5361,Li2Ti4Co(AsO5)4,-2.479386349
5362,Mo2AsH18C6NO12,-0.727282259
5363,Mn4Si3AsHO13,-2.49977784
5364,V2As3H17C4N8O17,-1.202823563
5365,KCo2As2HO8,-1.716557272
5366,Na3BiAsCO7,-1.866177604
5367,Sr3(AsO4)2,-2.717169136
5368,Na3AsO4,-2.068198954
5369,Li2CuAsO4,-1.796657977
5370,BaZn2As3HO11,-1.969336427
5371,CaAs2H6F18,-2.400792654
5372,SbAsAuF9,-2.312816528
5373,Na6Zn3As4H6O19,-1.837839686
5374,As2HPbF13,-2.453928699
5375,Nb9AsO25,-2.922049241
5376,As3H12C4S5N,-0.371274106
5377,AsH3C(SF2)3,-1.494833995
5378,K5Li3Ti8(AsO5)8,-2.571249555
5379,Mn2AsHO5,-1.899290373
5380,Na2AsPCO7,-2.201675487
5381,Ni17(AsO4)12,-1.373590342
5382,ZnFe2As2(HO5)2,-1.735859589
5383,Li2AsPCO7,-2.218633203
5384,Na5Bi2As(CO4)4,-1.87908134
5385,UAs2H6O11,-1.912300459
5386,Li3CuAsCO7,-1.90428404
5387,NaSbAsCO7,-1.782850443
5388,NaBiAsCO7,-1.729106624
5389,Na4Bi2As(CO4)4,-1.817921029
5390,Li7CuAs4ClO14,-1.943037179
5391,Na6Bi2As(CO4)4,-1.879721326
5392,Na5Cr2As(CO4)4,-1.991345199
5393,Fe(AsO2)2,-1.689703223
5394,LiCrAsCO7,-1.887763846
5395,NbAsO4,-2.425103974
5396,Na3BiBAsO7,-2.138197626
5397,Li2CuAsCO7,-1.760921677
5398,Na6Cu2As(CO4)4,-1.785586424
5399,Na3SnAsCO7,-1.953790787
5400,Na4Cr2As(CO4)4,-1.932479324
5401,Na3BSbAsO7,-2.133030561
5402,Na6Cr2As(CO4)4,-2.011590126
5403,Na3MnBAsO7,-2.206433154
5404,Na6Fe2B4AsO16,-2.172946304
5405,Na6Mn2B4AsO16,-2.238881127
5406,NaMnAsCO7,-1.837638445
5407,LiFeAsCO7,-1.775328082
5408,LiMnAsCO7,-1.847075091
5409,Na2CuAsCO7,-1.731153359
5410,Na2SbAsCO7,-1.945659766
5411,Na5Ni2As(CO4)4,-1.738881015
5412,Na3FeBAsO7,-2.172773757
5413,Na2VAsCO7,-2.124395599
5414,Li3NiAsCO7,-1.949668046
5415,Li3FeBAsO7,-2.229606644
5416,Li3MnBAsO7,-2.249639783
5417,Li3MnAsCO7,-2.12154616
5418,Na3CrAsCO7,-2.052910974
5419,Li2FeAsCO7,-2.005464956
5420,Na3MnAsCO7,-2.080982811
5421,Na3CoBAsO7,-2.049310677
5422,Li2MnAsCO7,-2.02627939
5423,Na3FeAsCO7,-2.027878813
5424,Na6Co2As(CO4)4,-1.865331153
5425,Na2MnBAsO7,-2.096769803
5426,Na2CrAsCO7,-2.082618223
5427,Li3FeAsCO7,-2.075166811
5428,Na3NiAsCO7,-1.89353513
5429,Na3VAsCO7,-2.082977762
5430,Na3NiBAsO7,-1.952324181
5431,Li2SbAsCO7,-1.954679931
5432,Na2FeBAsO7,-2.051609844
5433,LiSnAsCO7,-1.912271308
5434,LiVAsCO7,-2.02947424
5435,Na3CuAsCO7,-1.853562016
5436,Li2BiAsCO7,-1.963399945
5437,ErAsO4,-2.869745636
5438,Na6Fe2As(CO4)4,-1.963459213
5439,Na2CoBAsO7,-1.89933254
5440,Na3CrBAsO7,-2.26501429
5441,Na2SnAsCO7,-1.924587098
5442,Li2VAsCO7,-2.138204753
5443,NaSnAsCO7,-1.906121847
5444,Na2SnBAsO7,-2.152611782
5445,Na2CoAsCO7,-1.83817331
5446,NaCoAsCO7,-1.629550442
5447,Li2MnBAsO7,-2.14420395
5448,Na3CuBAsO7,-1.938075702
5449,Li3CrBAsO7,-2.326398611
5450,Na3VBAsO7,-2.301916353
5451,K2LiTi2(AsO5)2,-2.481132199
5452,Na2MnAsCO7,-2.008077387
5453,NaCrAsCO7,-1.87565818
5454,Li2CrAsCO7,-2.101501022
5455,Na3CoAsCO7,-1.95618545
5456,Na2VBAsO7,-2.251419639
5457,NaFeAsCO7,-1.771781719
5458,Na2NiAsCO7,-1.732142889
5459,Na2FeAsCO7,-1.988286156
5460,NaVAsCO7,-2.013634139
5461,LiZnAsH2O5,-1.803355868
5462,CsAsO3,-1.914012072
5463,CuAsO3,-1.276272639
5464,Na5Co2As(CO4)4,-1.806942655
5465,CaAs2HF13,-2.727121967
5466,Li3Cr2(AsO4)3,-2.080170568
5467,Na6Bi2B4AsO16,-2.178405025
5468,Na4Fe2As(CO4)4,-1.848482049
5469,CaMnAs2(H3O5)2,-1.843820571
5470,Na4Mn2As(CO4)4,-1.862913462
5471,Na6Ni2As(CO4)4,-1.828330086
5472,As4H24C8S7N2,-0.350336842
5473,AsPO4,-2.217480684
5474,Sr4As2O,-1.714209009
5475,Ba4As2O,-1.581238029
5476,Cs2NaAsO4,-2.056343337
5477,AsS2NF6,-1.858938872
5478,Na6V2B4AsO16,-2.392212819
5479,Na3Zn4As3H12O19,-1.678920676
5480,Na6V2As(CO4)4,-2.052587572
5481,Na6Mn2As(CO4)4,-2.006479122
5482,PuAu3,-0.344913413
5483,Sc2ZnAu,-0.595362963
5484,PmPbAu2,-0.609452774
5485,PmTlAu2,-0.567784207
5486,PmZnAu2,-0.584461467
5487,PmAu3,-0.660256652
5488,Ba2ScFeAsO3,-2.486033488
5489,Sr2MnZn2(AsO)2,-1.511535097
5490,NpAu3,-0.130317838
5491,Yb2SbAu,-0.991243427
5492,LaAu3,-0.686337159
5493,ThAu3,-0.629669721
5494,Th3Au4,-0.657882074
5495,CeAu3,-0.580675516
5496,PaAu3,-0.385980965
5497,K3Bi(AsSe2)6,-0.441145442
5498,NdMgAu2,-0.730587547
5499,NdAu3,-0.650530724
5500,HfZnAu2,-0.435974589
5501,CsAsH6(CSe)2,-0.366595459
5502,K3Dy(AsS4)2,-1.284530778
5503,Li3AsH36(SeN3)4,-0.583445475
5504,K2SbAu,-0.521242374
5505,EuKAsS4,-1.368939037
5506,Eu2PtAu,-0.818943965
5507,DyMgAu2,-0.780641819
5508,LiCdAu2,-0.371656938
5509,LaBiAu2,-0.679352067
5510,Mn3As(HO2)4,-1.78129223
5511,K2Au3,-0.345318894
5512,LiMgAsO4,-2.398847368
5513,NaLi2AsO4,-2.216064456
5514,CsBeAsO4,-2.315816367
5515,K3AuO,-0.904669462
5516,AuF3,-1.332677571
5517,Au2S,-0.292034468
5518,K2AsAuS4,-0.969525218
5519,K2NaGaAs2,-0.505497086
5520,K2LiGaAs2,-0.586643645
5521,Au3N,0.690473222
5522,Na2LiGaAs2,-0.56163569
5523,SiAu3,0.16190804
5524,ScAu3,-0.58891848
5525,Hg3Au,0.162366128
5526,RbAuSe,-0.754562988
5527,In3Au,-0.015744785
5528,FeAu3,0.158405207
5529,PdAu3,-0.079642708
5530,RuAu3,0.393948204
5531,ReAu3,0.653914249
5532,K3La(AsO4)2,-2.435845461
5533,PrMgAu2,-0.718142849
5534,Nd3Au,-0.206129099
5535,NaZnAs(H2O3)2,-1.645060883
5536,Hf3Au,-0.186604734
5537,Na3Au,-0.190802416
5538,NiAu3,0.092892552
5539,Ni3Au,0.121511393
5540,OsAu3,0.690229036
5541,Pu3Au,0.662056087
5542,BaBAsO5,-2.641098086
5543,TlAu3,0.09264058
5544,Th3Au,-0.131549692
5545,Ba3BAsO3,-2.541477856
5546,Y2Au,-0.645911758
5547,SnAu3,-0.048608367
5548,PbAu3,0.022432527
5549,P3Au,0.645817069
5550,Ga3Au,-0.028567926
5551,BeAu3,0.076808545
5552,ErZnAsO,-2.008722692
5553,Au3O,0.189462612
5554,Au3S,0.180130786
5555,AuS,-0.11805645
5556,Au3Br,0.350024797
5557,Cs2AsBrCl6,-1.432141004
5558,Rb2NaAsF6,-2.82387757
5559,Cs2NaAsCl6,-1.823980607
5560,HoAu2,-0.874194197
5561,ZrSiCuAs,-0.61014988
5562,PbAuO2,-0.970411043
5563,CoAuO2,-0.990008154
5564,TiFeCoAs,-0.356446922
5565,Pd3Au,-0.068478318
5566,CaBiAsO6,-1.9236845
5567,CaCu2(As2O7)2,-1.613476252
5568,Mg3Bi2(AsO6)2,-1.978438125
5569,MgBiAsO6,-1.653864303
5570,Ca3Bi2(AsO6)2,-2.239542853
5571,Ca3Cu6(AsO4)8,-1.604751425
5572,Zn3Cu2(AsO4)4,-1.502623544
5573,CaSnAs2O7,-2.098561501
5574,MnZnAs2O7,-1.818372636
5575,CuSbAs2O7,-1.356159017
5576,CaSbAs2SeO7,-1.787769234
5577,ZnSbAs2SeO7,-1.432348328
5578,MgSbAs2SeO7,-1.654891116
5579,MgCuAsO5,-1.714550533
5580,CaTiAsO5,-2.838391361
5581,MgTiAsO5,-2.510967729
5582,CaSnAsO5,-2.273092043
5583,CaBiAsO5,-2.190143642
5584,TiZnAsO5,-2.172788507
5585,ZnSbAsO5,-1.678214041
5586,ZnBiAsO5,-1.681929012
5587,MgBiAsO5,-2.036548418
5588,ZnCuAsO5,-1.380481203
5589,MgCoAsO5,-1.889672525
5590,CaCrAsO5,-2.400943454
5591,MgCrAsO5,-2.203955676
5592,CaVAsO5,-2.494562312
5593,CaSbAsO5,-2.207545122
5594,CaMnAsO5,-2.35012636
5595,MgNiAsO5,-1.709071216
5596,MgSbAsO5,-2.042657732
5597,CaCoAsO5,-2.108196612
5598,MgVAsO5,-2.31083332
5599,CaNiAsO5,-1.927985662
5600,ZnSnAsO5,-1.733861974
5601,ZnCrAsO5,-1.899877131
5602,MgMnAsO5,-2.14995749
5603,MnZnAsO5,-1.834565474
5604,VZnAsO5,-1.988196402
5605,CaAsWO5,-2.268621588
5606,CaFeAsO5,-2.281350836
5607,ZnNiAsO5,-1.398159531
5608,ZnFeAsO5,-1.755915769
5609,MgMoAsO5,-2.100375407
5610,ZnMoAsO5,-1.804115151
5611,CaMoAsO5,-2.262713975
5612,MgFeAsO5,-2.088030221
5613,MgAsWO5,-2.104805441
5614,Mg3Cu3(AsO4)4,-1.873223396
5615,Zn3Cu3(AsO4)4,-1.528538388
5616,Ca3Co3(AsO4)4,-2.158609173
5617,MgSnAsO5,-2.123652828
5618,Ca3Cr3(AsO4)4,-2.315458096
5619,Ca3Ni3(AsO4)4,-2.042530978
5620,Ca3Mn3(AsO4)4,-2.342287342
5621,ZnAsWO5,-1.735735195
5622,Mg3Ti3(AsO4)4,-2.401216295
5623,Mg3Sn3(AsO4)4,-2.008637021
5624,Mg3Cr3(AsO4)4,-2.148106395
5625,Ca3Ti3(AsO4)4,-2.549137301
5626,Ca3Fe3(AsO4)4,-2.262043791
5627,Zn3Sn3(AsO4)4,-1.684621226
5628,Ca3Sn3(AsO4)4,-2.190674724
5629,Ti3Zn3(AsO4)4,-2.16713415
5630,Mg3Mn3(AsO4)4,-2.18066051
5631,Mg3Co3(AsO4)4,-1.999002553
5632,Zn3Co3(AsO4)4,-1.627053723
5633,Zn3Cr3(AsO4)4,-1.801959871
5634,Ca3V3(AsO4)4,-2.315553382
5635,Mg3Ni3(AsO4)4,-1.887718168
5636,Mn3Zn3(AsO4)4,-1.833763499
5637,Mg3Fe3(AsO4)4,-2.102464232
5638,Zn3Ni3(AsO4)4,-1.541284494
5639,Mg3V3(AsO4)4,-2.147481273
5640,V3Zn3(AsO4)4,-1.814239282
5641,Zn3Fe3(AsO4)4,-1.755646011
5642,Zn3As4W3O16,-1.634932052
5643,Mg3As4W3O16,-1.96057121
5644,Ca3As4W3O16,-2.031485129
5645,MgCuAs2O7,-1.823838996
5646,ZnCuAs2O7,-1.548019211
5647,MgSnAs2O7,-1.964118363
5648,MgTiAs2O7,-2.400169242
5649,ZnSnAs2O7,-1.687168661
5650,TiZnAs2O7,-2.139859616
5651,CaTiAs2O7,-2.516950528
5652,MgCoAs2O7,-1.951939876
5653,CaCoAs2O7,-2.070313217
5654,CaCrAs2O7,-2.192936992
5655,ZnCoAs2O7,-1.667803826
5656,MgCrAs2O7,-2.074070584
5657,CaMnAs2O7,-2.217859172
5658,MgMnAs2O7,-2.103813929
5659,MgVAs2O7,-2.140593454
5660,ZnCrAs2O7,-1.785573357
5661,MgFeAs2O7,-2.040017123
5662,MgNiAs2O7,-1.875155733
5663,CaNiAs2O7,-1.990467632
5664,ZnNiAs2O7,-1.588717194
5665,ZnFeAs2O7,-1.753718819
5666,CaFeAs2O7,-2.155401114
5667,MgAs2WO7,-2.013559158
5668,CaVAs2O7,-2.260629688
5669,VZnAs2O7,-1.867629843
5670,ZnAs2WO7,-1.714744402
5671,CaAs2WO7,-2.154205085
5672,HfB12,-0.192907358
5673,B12W,0.210580967
5674,ZrB6,-0.017325449
5675,LiB,0.212683632
5676,TcB,0.140532764
5677,HfB6,0.102062288
5678,SmB12,-0.227753247
5679,PrB12,-0.190841385
5680,NdB12,-0.205382636
5681,GdB12,-0.2409866
5682,BiB,0.816580447
5683,FeB,-0.371962906
5684,BP,-0.40041722
5685,SrB2,0.181226042
5686,CaB2,-0.138218288
5687,YGeAu,-0.836946318
5688,BeB2,0.116549846
5689,MnB4,-0.27032056
5690,Mn3B4,-0.402741909
5691,SmB2,-0.391517318
5692,ZrB,-0.407731921
5693,Ta3B4,-0.771392735
5694,TiB,0.723514663
5695,B2W,-0.078107158
5696,YbB2,-0.217688838
5697,BC5,0.255341818
5698,CaBiAu,-0.683270443
5699,CePbAu,-0.483844247
5700,CeSbAu,-0.720044978
5701,EuBiAu,-0.708561207
5702,LaPbAu,-0.647259217
5703,NdPbAu,-0.576218295
5704,NdGeAu,-0.832407027
5705,PrPbAu,-0.584945575
5706,PrGeAu,-0.828627838
5707,SmGeAu,-0.836984282
5708,SmPbAu,-0.55748369
5709,TbGeAu,-0.838402772
5710,TcB2,-0.442422323
5711,YbNi4Au,-0.290474702
5712,HoCu4Au,-0.349609625
5713,ErNi4Au,-0.404144707
5714,Ti2B,-0.393950842
5715,NpB6,-0.263623793
5716,Ti3B4,-0.932063588
5717,Nb3B4,-0.75603303
5718,Ta2B,-0.523322272
5719,RbAuC2,0.178012228
5720,NaAuC2,0.252582254
5721,KAuC2,0.174540138
5722,YbSiAu,-0.775989483
5723,RbAuO,-1.077858904
5724,Gd3AuO6,-3.096671073
5725,Sm3AuO6,-3.091693845
5726,CaPAu,-0.885206089
5727,KB6,-0.02781331
5728,BaSbAu,-0.31958095
5729,B2Ru,-0.287322888
5730,NpB2,-0.400967949
5731,ZrB12,-0.211558392
5732,TaB,-0.815803598
5733,GaAuO2,-1.517387842
5734,ScAuO2,-2.575103666
5735,TaB2,-0.652593004
5736,YbMgAu,-0.725171062
5737,CeSnAu,-0.719212605
5738,CeCdAu,-0.544954247
5739,EuCdAu,-0.631957148
5740,YbCdAu,-0.709814521
5741,BW2,-0.260543666
5742,VAuS2,-1.040855838
5743,LuB2,-0.691916941
5744,DyPbAu,-0.68449484
5745,NaSnAu,-0.367445639
5746,TiB2,-1.057406357
5747,CaGaAu,-0.712647817
5748,SrSbAu,-0.39317274
5749,La(SiAu)2,-0.658005487
5750,LiSnAu,-0.43129669
5751,Cr2B3,-0.433416244
5752,LiAuF4,-2.028746345
5753,KAuF6,-1.83771052
5754,CeCu5Au,-0.225321689
5755,ErGeAu,-0.575505918
5756,LiSbAu,-0.322571877
5757,PrB4,-0.546723957
5758,ThB12,-0.25406785
5759,LuB6,-0.309739936
5760,CrTe4Au,-0.14099952
5761,Zn2CuAu,-0.150417492
5762,PrB6,-0.484105683
5763,TbB6,-0.417580567
5764,Sr(GaAu)2,-0.596102178
5765,Na2LiAu3,-0.437943524
5766,ZrGaAu,-0.59626551
5767,HfGaAu,-0.510959293
5768,ErB6,-0.36662055
5769,YbZnAu,-0.721174151
5770,BN,-1.468138215
5771,LuSnAu,-0.750607987
5772,ErSnAu,-0.796462588
5773,SmSnAu,-0.855671897
5774,HoGeAu,-0.749806052
5775,Ta3B2,-0.675022132
5776,Sm(SiAu)2,-0.599875218
5777,CeZnAu,-0.575906754
5778,Y3Sb4Au3,-0.823215359
5779,NaSiAu3,-0.271812849
5780,NaGeAu3,-0.245622326
5781,B3Ru2,-0.336779787
5782,B13P2,0.689248663
5783,NiB,-0.241492698
5784,Be2B,0.034515534
5785,K5P2Au,-0.383645791
5786,Pr2Au5F21,-2.250315194
5787,Nd2Au5F21,-2.249854902
5788,ZrB2,-0.991371791
5789,TmAu2F9,-2.407811416
5790,LuAu2F9,-2.402464796
5791,VB2,-0.742845971
5792,UB2,-0.579313206
5793,YB2,-0.564799974
5794,Na3AuS2,-1.130684951
5795,K3AuSe2,-0.989039349
5796,Cr5B3,-0.423785923
5797,Re3B,-0.205115738
5798,Cr2B,-0.378467951
5799,Li3AuS2,-1.261896268
5800,B,0
5801,Sm4Au2O9,-2.82035252
5802,CaSbAu,-0.807061545
5803,CdSbAu,-0.121166533
5804,Th(GeAu)2,-0.44407129
5805,Th(SiAu)2,-0.54814413
5806,Yb(SiAu)2,-0.527742286
5807,NdB4,-0.564866505
5808,Pr2B5,-0.489574489
5809,TmSnAu,-0.780546112
5810,PrB3,-0.031933518
5811,K3Ge4Au,-0.278118241
5812,Rb3Sn4Au,-0.340733509
5813,Zn(AuF4)2,-1.711437443
5814,B3Ru7,-0.142750232
5815,ThB6,-0.485634666
5816,YbGa7Au3,-0.375862283
5817,ReB2,-0.429816484
5818,Ba4Si20Au3,-0.282064539
5819,Rb3Ge4Au,-0.268855357
5820,K3Sn4Au,-0.344213903
5821,BMo,-0.492335677
5822,Fe2B,-0.312520316
5823,NdB6,-0.476000268
5824,CeInAu,-0.623341399
5825,InAuO2,-1.346548164
5826,CeB4,-0.626982376
5827,EuInAu,-0.68348807
5828,HfB2,-1.023820569
5829,BaGdAuSe3,-1.514822374
5830,TbB4,0.539613284
5831,Np(SiAu)2,-0.006325935
5832,CeGeAu,-0.598346468
5833,Mn2B,-0.397635213
5834,NaAuO2,-1.097432554
5835,UInAu2,-0.218527294
5836,Co3B,-0.178999729
5837,CaInAu,-0.677086217
5838,GdPbAu,-0.689740212
5839,GdSnAu,-0.830932107
5840,PuB4,-0.491298614
5841,BPd3,-0.264056898
5842,DyB2,-0.565345111
5843,Ni3B,-0.263124543
5844,Nb3B2,-0.623257908
5845,Ca2PbAu2,-0.712697171
5846,YbIn2Au,-0.575648933
5847,Rb(InAu2)2,-0.266072989
5848,CoB,-0.401554581
5849,EuB6,-0.472546004
5850,V3B2,-0.72722339
5851,Ni23B6,-0.194974417
5852,K(InAu2)2,-0.29171184
5853,Eu(SiAu)2,-0.540038569
5854,CeB6,-0.517572893
5855,NaIn2Au,-0.30326495
5856,Eu3AuO6,-2.54316284
5857,LaInAu,-0.766341877
5858,BRh2,-0.201127771
5859,La(In2Au)2,-0.472399336
5860,Ce(In2Au)2,-0.394501952
5861,CaGeAu,-0.727531233
5862,Eu4Au2O9,-2.320896681
5863,Ba4Ge20Au3,-0.319270904
5864,Dy2InAu2,-0.823776614
5865,BPt,0.061833814
5866,YB6,-0.399678759
5867,DyGeAu,-0.833083465
5868,DyInAu,-0.751022223
5869,GdB6,-0.458734065
5870,EuSbAu,-0.867510883
5871,YInAu2,-0.711636763
5872,ScB2,-0.841069191
5873,SrInAu,-0.660231725
5874,CaIn2Au,-0.53833913
5875,Gd(SiAu)2,-0.589304411
5876,HoB2,-0.594830904
5877,TbInAu,-0.754295764
5878,EuPAu,-0.922107058
5879,CsAuCl3,-1.336111816
5880,BCl3,-1.416644164
5881,BI3,-0.063909317
5882,BBr3,-0.530692487
5883,BCl,-0.845111961
5884,B2Mo,-0.428998481
5885,BCl2,-1.142858974
5886,PAuCl4,-0.98881025
5887,SrB6,-0.451458423
5888,BMo2,-0.302435157
5889,Ni2B,-0.289943334
5890,NbB,-0.762487013
5891,CrB,-0.526531928
5892,B2Pd5,-0.260422789
5893,Na3B20,-0.059511893
5894,LaB6,-0.564018774
5895,KAuCl4,-1.306655963
5896,AuSeBr,-0.156810195
5897,B13H19,-0.144229407
5898,AuClO,-0.594548178
5899,RbAuBr3,-0.870316194
5900,Rb3Au3Cl8,-1.382415239
5901,P10Au7I,-0.129754927
5902,KAuO2,-1.131903101
5903,Au2Se4O11,-0.999314718
5904,Te2AuCl,-0.40417253
5905,Te2AuI,-0.099828901
5906,PuB,0.546747873
5907,Li5B4,0.507467998
5908,CrB4,-0.306143503
5909,Be4B,-0.023030686
5910,B4H5,-0.160961132
5911,B7H10,-0.138981607
5912,BF2,-2.661401576
5913,B2H3,-0.135385031
5914,BF3,-3.130128747
5915,B2H5,-0.160407752
5916,Au2Se2O7,-0.876864299
5917,Ca(AuF6)2,-1.807860431
5918,AuSCl5,-0.765548321
5919,TeAuCl7,-0.91959185
5920,Na3AuO2,-1.337350991
5921,Gd2B5,-0.578018975
5922,TlAuCl4,-0.980067196
5923,AuSeCl7,-0.779834747
5924,CuAuF5,-1.560153847
5925,PAuCl8,-0.989198001
5926,B6P,-0.291714648
5927,CsAuI3,-0.729605763
5928,ErB4,-0.588864004
5929,B2Os,-0.216142779
5930,K3AuSe13,-0.395662952
5931,Ta5B6,-0.788972789
5932,Ba(AuF4)2,-2.223760611
5933,Ba9(AuO6)2,-2.472669698
5934,Sr5(AuO4)2,-2.357633179
5935,LaAuO3,-2.328636645
5936,Na7Au5S6,-0.973701046
5937,ReB,0.018518855
5938,ScSnAu,-0.761978327
5939,Ca(AuO2)2,-1.476828289
5940,La(AuF4)3,-2.16130125
5941,Rb4Au6S5,-0.875278405
5942,KAuSe2,-0.589552408
5943,NaAuSe2,-0.503409744
5944,Cd(AuF4)2,-1.707577851
5945,Hg(AuF4)2,-1.497912318
5946,Ca2AuN,-0.903314766
5947,Cs2Au2Se3,-0.687192766
5948,AuCN,0.25043549
5949,Na5AuSe12,-0.508974426
5950,B10H13,-0.167709887
5951,K4Au6S5,-0.870824427
5952,Li2GeAu,-0.484413209
5953,B3H4,-0.003549622
5954,KAuI4,-0.555235036
5955,LiAuI4,-0.444887949
5956,CaSnAu,-0.740445139
5957,B5H8,-0.136257737
5958,B4W,0.398098139
5959,B9H11,-0.174216719