id,Composition,FormationEnergy
32722,Li5Fe3Ni2(PO4)6,-2.394516696
32723,Li8Fe7Sb(PO4)12,-2.497787222
32724,V3Fe2Te(PO4)6,-2.477422068
32725,Li4Mn2Fe3Sb(PO4)6,-2.459515032
32726,Li4V3Fe3(SnO8)2,-2.251025074
32727,Li4Nb3V2Fe3O16,-2.476521324
32728,Li2Fe2Ni(PO4)3,-2.362265585
32729,Fe3NiSn2(PO4)6,-2.322866212
32730,NbFe3Ni2(PO4)6,-2.420623551
32731,Li4NbFe(TeO6)2,-2.125907776
32732,Fe3Ni2Sb(PO4)6,-2.29392372
32733,Ti3Fe2Te(PO4)6,-2.682994232
32734,Fe3Ni2Te(PO4)6,-2.228789953
32735,Ti3FeSn2(PO4)6,-2.804757958
32736,Li4Mn3Fe2Sn3O16,-2.059676935
32737,NaLiMn2Fe4(PO4)6,-2.486730836
32738,Li4Fe5Sb(PO4)6,-2.38306119
32739,Li8TiFe7(PO4)12,-2.553763003
32740,Fe2Ni3Sb(PO4)6,-2.142676591
32741,Li4Mn5Fe(PO4)6,-2.521495723
32742,TiFe3Sn2(PO4)6,-2.521517511
32743,Li8Fe7Sn(PO4)12,-2.495059565
32744,MnFe3Sn2(PO4)6,-2.391763882
32745,Li4Ti3Fe2Sn3O16,-2.524059819
32746,Ti3Fe2Sb(PO4)6,-2.745029711
32747,Li2FePHO5,-2.317843814
32748,Li6Fe3Sn(PO4)6,-2.527275316
32749,LiFePH2O5,-2.108363666
32750,Li4Fe2Ni3Te3O16,-1.616550955
32751,LiFeP3H8O13,-2.004686794
32752,Li4Nb3Fe3(TeO8)2,-2.281281941
32753,LiFeP2H5O9,-2.029048213
32754,Li4V3Fe2Sn3O16,-2.229587832
32755,Li4Fe3P4(HO8)2,-2.424372381
32756,LiFeP2HO7,-2.389296113
32757,Li3FeP2HO8,-2.487759814
32758,LiFe3P3(HO6)2,-2.336311614
32759,LiFeP3(HO5)2,-2.324128756
32760,Li8Fe7Ni(PO4)12,-2.422996512
32761,MnFe3Ni2(PO4)6,-2.251558622
32762,Li4Fe2Ni3Sn(PO4)6,-2.309491724
32763,LiFeH8(SO6)2,-1.73049585
32764,LiFeP(H6O5)2,-1.6744963
32765,LiGaGe,-0.268004142
32766,InGaO3,-2.15387931
32767,GaNi3,-0.281596959
32768,GaGeTe,-0.239666407
32769,Li3ZnFe2(PO4)3,-2.53798116
32770,Li8MnFe7(PO4)8,-2.563470236
32771,Li2Mg2MnFe(PO4)4,-2.717161169
32772,Li2Fe3P4(HO4)4,-2.296101936
32773,Li4NbFe(WO6)2,-2.403178352
32774,Li10Mg12Fe(PO4)12,-2.948059945
32775,Li16Mn15Fe(PO4)16,-2.643620372
32776,LiFeP3(H7O8)2,-1.850883065
32777,Li4Ti3Fe3(NiO8)2,-2.235500307
32778,V3FeSn2(PO4)6,-2.522970903
32779,Fe3Ni2P6WO24,-2.328716166
32780,NaLiFe2(SiO3)4,-2.802983119
32781,Li4V3Fe2Sb3O16,-2.180781714
32782,FeNi3Sn2(PO4)6,-2.182872764
32783,Pm2LiGa,-0.302099865
32784,PaGaNi2,-0.387780481
32785,PaGaTc2,-0.253021044
32786,PaGa3,-0.368095619
32787,Sc2GaOs,-0.533783507
32788,Sc2GaRu,-0.604940127
32789,Sc2GaTc,-0.432017687
32790,LiGaRh2,-0.522076384
32791,PrGa3,-0.572988783
32792,GdGaRh2,-0.75183706
32793,SrGa12O19,-2.35122413
32794,PmGa3,-0.570398578
32795,Pm2MgGa,-0.342662414
32796,NpGaRh2,-0.288149835
32797,Nd2Ga12Ni,-0.408721399
32798,Yb2LiGa,-0.261938581
32799,YbGaPt,-1.030983692
32800,MnGaRh2,-0.533686247
32801,HfGaRu2,-0.605738727
32802,HfGaRh2,-0.890549238
32803,MnGaIr2,-0.331273559
32804,MgGaNi2,-0.334396922
32805,MgGaPd2,-0.72140351
32806,MgGaRh2,-0.699780073
32807,MnGaRu2,-0.256463632
32808,MgGaIr2,-0.449154105
32809,TmGaRh2,-0.88867343
32810,MnGa2Tc,0.094103641
32811,Tm2GaOs,-0.411025645
32812,GdGa3,-0.54047305
32813,UGaTc2,-0.12664191
32814,TiGaRu2,-0.621504973
32815,ThGa3,-0.525030404
32816,VGaTc2,-0.231124026
32817,LiNd2Ga,-0.295112024
32818,VGaRu2,-0.470500959
32819,Lu2GaTc,-0.31079929
32820,YGa3,-0.537965102
32821,LuGaPd2,-0.868766686
32822,LuGaRh2,-0.920430084
32823,GaSiRu2,-0.490843646
32824,HoGaRh2,-0.847820269
32825,Ga2IrRh,-0.541061725
32826,GaTc2W,-0.127007464
32827,YbGa2Ir,-0.567330442
32828,YbGaPd2,-0.772874209
32829,YbGaRh2,-0.732155084
32830,TiMn2Ga,-0.224940614
32831,GaGeRu2,-0.30405077
32832,HfGaIr2,-0.705664265
32833,GaNiRh2,-0.332952634
32834,Ga2RuIr,-0.403856609
32835,TiGaPd2,-0.66035607
32836,TiGaIr2,-0.65361399
32837,YGaRh2,-0.794307664
32838,TiGaRh2,-0.840660855
32839,SmGa3,-0.56198753
32840,LiHo2Ga,-0.313608044
32841,ScGaRu2,-0.430484619
32842,LiGaPt2,-0.720842171
32843,LiGaNi2,-0.324380446
32844,LiGaPd2,-0.704351316
32845,LiGa3,-0.182910391
32846,LiGa2Ni,-0.37084037
32847,Sc2ZnGa,-0.510983361
32848,Ga2RuRh,-0.536255651
32849,TaGaRu2,-0.580395204
32850,TaGaOs2,-0.307110266
32851,GaTc,-0.099496705
32852,ScGaIr2,-0.789858891
32853,ScGaPt2,-0.963801794
32854,ScGaRh2,-0.979676596
32855,Li4Nb3Fe3(SbO8)2,-2.361355217
32856,Li2VFe(PO4)2,-2.597108412
32857,SrGaSn,-0.543813199
32858,ScGa3,-0.493319699
32859,LiFeHSO5,-2.062458664
32860,Li3Ga2,-0.32021888
32861,MgScGa,-0.29199236
32862,NbGaPt,-0.087637015
32863,TaGaPt,-0.052650172
32864,VGaPt,-0.130219285
32865,VGaNi,0.303728192
32866,ZnGa3,0.068690921
32867,ZnGaO3,-1.161819168
32868,U2Ga2O5,-2.261265963
32869,YbGa2Pd,-0.758025999
32870,ZrGaPd2,-0.725079196
32871,Tm2ZnGa,-0.476836146
32872,TbGa2Pd,-0.804796133
32873,Sc2GaPt,-0.911436649
32874,Sc2GaIr,-0.797453424
32875,ScGa2Ru,-0.527125021
32876,Lu3Ga,-0.231630269
32877,Ga3Te,0.017680169
32878,Lu2ZnGa,-0.467144836
32879,La2ZnGa,-0.453535288
32880,Ga3Ge,0.089396765
32881,Lu3Ga5Ni,-0.653041731
32882,In3Ga,0.042839064
32883,RbGaH2,-0.291750066
32884,Rb3Ga,0.200261166
32885,Li3Ga,-0.213538464
32886,Mn2GaW,-0.064853054
32887,Nd2ZnGa,-0.443573646
32888,LiLu2Ga,-0.296569311
32889,ZnGaIr2,-0.333576494
32890,ZnGaRh2,-0.619478629
32891,NbGaRu2,-0.488443644
32892,TbGaRh2,-0.80549902
32893,Yb2ZnGa,-0.432857116
32894,Pm2ZnGa,-0.45793806
32895,Mg3Ga,-0.070962677
32896,SmGaO3,-2.9289988
32897,Sm2ZnGa,-0.461313304
32898,Sr(GaH)2,-0.466072185
32899,Sc6Ga16Ru7,-0.516548143
32900,Yb2GaHg,-0.575718511
32901,Tm3Ga,-0.232256793
32902,HoGa2Pd,-0.802434342
32903,GaSi3,0.476823449
32904,PmLi2Ga,-0.278050663
32905,TiV3Fe2(PO4)6,-2.680430567
32906,Ti2GaNi,-0.26272117
32907,SmGa,-0.605047238
32908,Mn3Ga,0.059912258
32909,Sr4MgFe2(SO3)2,-2.490498603
32910,Sr3MgFe2S2O5,-2.35593098
32911,TbGe2,-0.58408779
32912,Ge2Os,-0.086379717
32913,SmGd3,0.021312588
32914,Sm3Gd,0.029949108
32915,PaNi2Ge,-0.407641329
32916,GeSe2,-0.253831874
32917,Hf3(NiGe)4,-0.669050298
32918,Ge,0.01962656
32919,Ti2Ge,0.234771991
32920,Mn2Ge,0.136759497
32921,Na3Sr3GaP4,-0.785778224
32922,ScGe,0.251876428
32923,ThGe2,-0.525346995
32924,PuGe2,-0.308917897
32925,GdS2,-2.117324876
32926,GdSe2,-1.593610249
32927,GdTlZn,-0.316483588
32928,GdZnIn,-0.444468357
32929,Mg2Ge,-0.120100947
32930,Ge2Mo,-0.138846833
32931,NaGa(GeO3)2,-2.191549748
32932,Zr2Ga(PO4)3,-3.048374152
32933,ScGe2,-0.56832103
32934,YGe2,-0.525581615
32935,Pr3(NiGe)4,-0.643685495
32936,ReGe2,-5.07E-05
32937,LaGe5,-0.29781421
32938,GeRu,-0.285526766
32939,HoGe3,-0.449528615
32940,TbGe3,-0.464086403
32941,ZrGe,-0.803911649
32942,Yb3(GePd)4,-0.811984857
32943,SmTiGe,-0.640841331
32944,YTiGe,-0.686121264
32945,GeSe,-0.210640862
32946,RbGdSe2,-1.741520551
32947,Yb2Ge6Pd,-0.502061183
32948,Np(GePd)2,-0.441050781
32949,GeO2,-2.053012132
32950,ThGe,-0.773938037
32951,NiGe,-0.306451841
32952,Yb2Ge2Ir,-0.76574836
32953,Gd,0.090376705
32954,GdHg,-0.519593843
32955,GdPd,-0.876156045
32956,GdPt,-1.223325534
32957,Yb5Ge3,-0.590791941
32958,TmMnGe,-0.51834375
32959,Pr2(Zn2Ge)3,-0.41928686
32960,Nd2(Zn2Ge)3,-0.415878613
32961,PrGe2,-0.62202237
32962,GdSbPt,-1.187765638
32963,YbLiGe2,-0.560066287
32964,V3Ge,-0.336585748
32965,UGe2,-0.254529837
32966,Li2ZnGe,-0.325430124
32967,Sr2TaGaO6,-3.195549178
32968,SrGe2,-0.486456575
32969,SrNi2Ge,-0.419118248
32970,SmGe2,-0.582474955
32971,GeS,-0.542447205
32972,TmGe2,-0.58931847
32973,PrGe3Rh,-0.709679217
32974,PrNiGe3,-0.596647335
32975,SrLiGe2,-0.532285238
32976,GdZnGe,-0.663224319
32977,YZnGe,-0.678298282
32978,KNaGdNbO5,-3.024555665
32979,LiGeRh2,-0.656116649
32980,Y5Ge4,-0.884115805
32981,Lu(NiGe)2,-0.64441484
32982,Y2Ge2O7,-3.059065254
32983,Ti6Ge5,-0.662417248
32984,HfGe2,-0.474142253
32985,Nb3Ge,-0.255827594
32986,Gd2Si2O7,-3.642486185
32987,Ge3N4,-0.258904522
32988,Sr2GdReO6,-2.977876619
32989,Gd2SeO2,-3.344078
32990,TbGe,-0.881498293
32991,LiGdGe,-0.701669068
32992,Sr4GeP4,-0.962920322
32993,GdPt2,-1.093873748
32994,SrGa2(SiO4)2,-3.003543271
32995,GePd,-0.46246676
32996,Ni5Ge3,-0.314039276
32997,Na3GaP8O23,-2.613753383
32998,KNa4GaO4,-1.829141651
32999,GaTe4(MoSe)4,-0.450213075
33000,NaGe2N3,-0.400194819
33001,NaNd(GaS2)4,-1.40562825
33002,Nd5Ge3,-0.704988369
33003,Sm5Ge4,-0.830586602
33004,NaGdTiO4,-3.356864212
33005,TmTiGe,-0.697787917
33006,Ge2Pt,-0.343633545
33007,KGdS2,-2.210055051
33008,LiGdSe2,-1.690926306
33009,Ge9Pd25,-0.460646764
33010,Gd2ReO5,-3.207201297
33011,Ni2Ge,-0.275959385
33012,Li(NiGe)6,-0.319439714
33013,Gd2TeO2,-3.206425948
33014,Sr3TaGa3(SiO7)2,-3.11617853
33015,Tm4Zn5Ge6,-0.517179381
33016,GePt3,-0.32280543
33017,GaSi(MoS2)4,-0.798135929
33018,GdPPt,-1.352279041
33019,HoGe,-0.863249012
33020,LiNi2Ge,-0.362175569
33021,Th2Ge,-0.582629332
33022,Ge3Os2,-0.074676954
33023,Tb5Ge4,-0.858933635
33024,Ho3Ge4,-0.779912644
33025,Gd2SiTeO4,-3.215858081
33026,Sr2GdRuO6,-2.842448272
33027,Gd3OsO7,-3.150003398
33028,Nb5Ge3,-0.46914122
33029,Na3GeTe3,-0.656751688
33030,Yb2Ge,-0.664737936
33031,Li3GaSiO5,-2.701472019
33032,Ta5Ge3,-0.274370659
33033,Gd2Sn2O7,-3.00804397
33034,Ge3Mo5,-0.103357456
33035,Y3Ge5,-0.718252491
33036,Pr5Ge3,-0.68400837
33037,Sc5Ge3,-0.844419262
33038,Nd5Ge4,-0.807642131
33039,Gd3RuO7,-3.139949644
33040,Sr3GdRhO6,-2.911317128
33041,Y3Ge4,-0.804349261
33042,Hf5Ge3,-0.679025074
33043,GdRh,-0.798450493
33044,Mg2GeS4,-1.367512116
33045,Yb4Ge6Ir7,-0.728468897
33046,Gd2TeO6,-2.984539248
33047,Li3GaGeO5,-2.364451215
33048,Zr5Ge3,-0.798585929
33049,Ta3Ge,-0.262225461
33050,Y5Ge3,-0.831982467
33051,Sr5Ge3,-0.556374067
33052,Li15Ge4,-0.325813433
33053,K2Li3GaO4,-2.068773951
33054,KNa2GaO3,-1.95025172
33055,Nd2(ZnGe2)3,-0.404644746
33056,Rb5GeP3,-0.322863179
33057,La2ZnGa2S6O,-1.934479722
33058,LiGaSiO4,-2.800196225
33059,Lu4Ge6Rh7,-0.966244769
33060,Rb6Ge2O7,-2.00291871
33061,KGaP2O7,-2.660398785
33062,Sr3(GeP2)2,-0.797504736
33063,Na3GeSe3,-0.872666899
33064,Rb4GeO4,-1.914489535
33065,NaGdSiO4,-3.30384078
33066,NaGdGeO4,-2.850745417
33067,Na2Ge2S5,-1.051335262
33068,Na2Ge2Se5,-0.602466356
33069,MnGeRh,-0.376700704
33070,Nd2Ge5Rh3,-0.821471667
33071,RbGe,-0.199437104
33072,Pr5Ge4,-0.792658414
33073,LiGa(WO4)2,-2.23548346
33074,GdGeRu,-0.691783067
33075,GdNbO4,-3.544506902
33076,GdInIr,-0.684807165
33077,Gd(SiPd)2,-0.940447987
33078,LaGe2,-0.689715467
33079,YMnGe,-0.500431275
33080,GdIn,-0.506429303
33081,GdSiRu,-0.811271603
33082,RbGdTe4,-0.949889236
33083,GdGe,-0.84655803
33084,GdSn3,-0.460153544
33085,LuNiGe,-0.813621812
33086,Gd2MgGe2,-0.761195703
33087,GdTl,-0.399576357
33088,Gd3S4,-2.441953319
33089,GePt2,-0.354484661
33090,GdTiGe,-0.675777596
33091,GdRh2,-0.724108012
33092,Gd(PdO2)2,-1.976955706
33093,GdSi2,-0.557011118
33094,Mn3Ge,-0.025554417
33095,Nd3Ge5,-0.742586146
33096,GdInPd,-0.814391439
33097,GdIn3,-0.433586451
33098,TiGePd,-0.714056025
33099,GdPt3,-0.952964871
33100,UGeRh,-0.575197153
33101,GdMgPd,-0.682056717
33102,U(MnGe)2,-0.20528555
33103,MgMnGe,-0.201565492
33104,NpGe3,-0.210505132
33105,KGdTe2,-1.413065909
33106,GdIn2Rh,-0.625403082
33107,Gd(MnSi)2,-0.49774746
33108,Gd2O3,-3.851080145
33109,YbGeRh,-0.890726863
33110,GdTl3,-0.251756131
33111,GdMg3,-0.092220213
33112,GdMnSi,-0.558519384
33113,Nd2InGe2,-0.741616604
33114,Ge2Pt3,-0.431427169
33115,Sm(MnGe)2,-0.473356981
33116,Y(MnGe)2,-0.481853481
33117,Gd2InPd2,-0.850587338
33118,Yb(MnGe)2,-0.405211787
33119,Gd(SiIr)2,-1.070581957
33120,Pr2InGe2,-0.738600853
33121,Na2Gd2Ti3O10,-3.350414951
33122,GeIr,-0.310153567
33123,Gd4Sb3,-1.063663259
33124,Gd(MnGe)2,-0.47768976
33125,NdMnGe,-0.459268879
33126,GeRh,-0.511541549
33127,UGeS,-1.190515966
33128,V5Ge3,-0.316307912
33129,Gd(SiNi)2,-0.836784745
33130,Ni3Ge,-0.291822404
33131,PrGe,-0.835866621
33132,U(GeIr)2,-0.414954467
33133,GdMg2,-0.098733067
33134,GdSbPd,-1.093802017
33135,YbMnGe,-0.328478291
33136,Nd(GePt)2,-0.844772115
33137,In6Ga2PtO8,-1.801490481
33138,GdO2,-3.113506606
33139,SrGePt,-0.903343022
33140,Na3(GePt)4,-0.506003236
33141,Sm2InGe2,-0.738782066
33142,Gd(SiRh)2,-1.110632077
33143,PrMnGe,-0.429389614
33144,Gd(SiPt)2,-1.027965537
33145,Th(MnGe)2,-0.464104587
33146,NdGe2,-0.610222217
33147,Yb5Ge4,-0.667143513
33148,GdNi5,-0.316458587
33149,LiGdO2,-3.221955405
33150,LaGe,-0.841868608
33151,Pr2MgGe2,-0.751162922
33152,Gd(SiOs)2,-0.714882765
33153,Nd(MnGe)2,-0.462393546
33154,GdPd3,-0.851880891
33155,KGe,-0.218416401
33156,SrGe,-0.62199429
33157,Gd(NiP)2,-1.014473348
33158,PuGe3,-0.358430223
33159,Hf3(NbGe2)2,-0.65055045
33160,Nb5Ge4,-0.389996567
33161,Sc2V3Ge4,-0.627649179
33162,Tm5(Ge5Rh2)2,-0.783913872
33163,UNi5Ge3,-0.343739229
33164,Gd(Sn3Ru2)2,-0.331229904
33165,Th(GePt)2,-0.82414496
33166,Ge3Ru2,-0.357127805
33167,GdMgPt,-0.940116014
33168,MnNi2Ge,-0.223782714
33169,UGePt,-0.626487323
33170,Gd3Pd2,-0.691996739
33171,Gd(GePd)2,-0.809775581
33172,Gd(GeRh)2,-0.892686717
33173,NdTiGe,-0.630067529
33174,YbGePt,-1.031227537
33175,GdScSi,-0.659040507
33176,Sc3(NiGe)4,-0.740940963
33177,Mn3GeIr,-0.037324822
33178,Gd(LuS2)3,-2.466986303
33179,Tb3Mn3Ga2Si,-0.335014175
33180,GeRh2,-0.466903658
33181,TaNiGe,-0.430615634
33182,GdInPt2,-0.944983626
33183,Nd2Ge2Ir,-0.461595819
33184,TmGeRh,-0.999705598
33185,Tb3Ge5,-0.723561457
33186,GeI4,-0.287115711
33187,Ge19(PI)4,-0.089539305
33188,Gd(HO)3,-2.282626254
33189,GdH2,-0.753987787
33190,GdH3,-0.684515569
33191,KGdP2H4O9,-2.503560031
33192,ZrGe2,-0.598464678
33193,GaP3(HO5)2,-2.383076096
33194,Ga2P3(HO3)3,-2.080100116
33195,RbGdH2S2O9,-2.403803038
33196,RbGa2P2H5O11,-2.168731415
33197,GdZn,-0.346766442
33198,MnGeO3,-2.118181188
33199,Ni2GeO4,-1.506571247
33200,GdVO4,-3.189362487
33201,K2RbGdV2O8,-2.730885291
33202,Sr2Ge,-0.537875678
33203,UGe3,-0.32026777
33204,Tb5Ge3,-0.792279552
33205,GeTe,-0.074955587
33206,GdMg,-0.11156386
33207,Tl8Ge5O14,-1.672377734
33208,Na6Ge2S7,-1.239447699
33209,K4Ge23,-0.084038206
33210,GeI2,-0.344386984
33211,Ge2S3I2,-0.607778278
33212,Li9Ge4,-0.347177406
33213,Na4Ge2Te5,-0.589684214
33214,K2GeTe4,-0.552327935
33215,Lu6Ge4O17,-3.307592065
33216,Na2GeSe3,-0.763509105
33217,Ga2TeSe2,-0.514045676
33218,Nb3GeTe6,-0.466245692
33219,Ga(MoS2)4,-1.174476431
33220,Pr(GeRh)2,-0.893885354
33221,Sr3(GeN)2,-0.778908154
33222,Re3Ge7,-0.011616157
33223,TlGeI3,-0.464773574
33224,Li7Ge2,-0.320088602
33225,Li11Ge6,-0.32584022
33226,GeSb4Te7,-0.120080628
33227,NaGe,-0.160288785
33228,Nb10Ge7,0.155125334
33229,NiGePt2,-0.342860187
33230,YGe3,-0.45947136
33231,Ho14Ge23,-0.698321633
33232,Nd4Ge7,-0.72650878
33233,NiGe2,-0.164165696
33234,Mn9(NbGe4)2,-0.190653655
33235,RbLi7Ge8,-0.244842051
33236,LiMg2Ge,-0.135440364
33237,Ni19Ge12,-0.30923733
33238,Gd3ReO8,-3.281340376
33239,Lu3Ge3Ir2,-0.921610662
33240,GdTlPd,-0.657687085
33241,Gd3ReO7,-3.309154314
33242,Th3Ge2,-0.696759171
33243,Sm2GeRh3,-0.843099516
33244,Th(NiGe)2,-0.709095792
33245,NiGePd,-0.465459073
33246,Nd4Ge3Rh4,-0.885067944
33247,Lu(MnGe)6,-0.318736168
33248,Li2(LuGe)3,-0.641318171
33249,Sr(GdSe2)2,-1.915235068
33250,SrGd2O4,-3.660159129
33251,Ge2Sb2Te5,-0.08927652
33252,Gd2Zr2O7,-3.77879076
33253,UGeSe,-0.795744458
33254,NbGe2,-0.338529419
33255,GdPaO4,-4.163301025
33256,Sr(GdS2)2,-2.452698226
33257,GdPO4,-3.445159447
33258,Gd2MgS4,-2.196860094
33259,Na4Ga3Si3IO12,-2.62656287
33260,NaGd3Ti2(SbO7)2,-3.138540372
33261,Th(GePd)2,-0.81677332
33262,Na5GeP3,-0.366024666
33263,Ge2N2O,-0.832777903
33264,Tm(NiGe)2,-0.665530705
33265,GePd2,-0.544978155
33266,U(GePd)2,-0.451642459
33267,Nd(NiGe)2,-0.692191191
33268,PrScGe,-0.71374053
33269,GdScGe,-0.74339775
33270,Gd2SO2,-3.554796339
33271,GdTaO4,-3.709713035
33272,Ge4Ir,-0.168944894
33273,GeMo3,-0.132405694
33274,Li(PrGe3)2,-0.43140921
33275,SnGeS3,-0.785158372
33276,Ga10GePb3O20,-2.162085721
33277,La3MnGaS7,-2.030037443
33278,Gd3Sb5O12,-2.64266921
33279,Gd2Ru2O7,-2.560813101
33280,U5Ge4,-0.182496772
33281,PrGePt,-1.064005475
33282,Np5Ge4,0.218477969
33283,Ge7Ir3,-0.263362633
33284,MnGePd2,-0.331714694
33285,NaGdO2,-3.089620417
33286,Gd3NbS3O4,-3.072314541
33287,GdOs2,-0.253263951
33288,GdTiO3,-3.628388399
33289,GdIr3,-0.339105199
33290,GdP,-1.588451112
33291,GdS,-2.38667588
33292,GdSb,-1.169008177
33293,GdSe,-1.850289927
33294,GdScS3,-2.395322139
33295,Ga2NiP3H8NO14,-1.940252004
33296,Gd(IO3)3,-1.488549275
33297,Sm(NiGe)2,-0.69864874
33298,NdNiGe2,-0.742524944
33299,In2Ge2O7,-2.083758702
33300,Gd2Ti2O7,-3.743173059
33301,SrLa7TiGa7O24,-3.168276908
33302,SrGa2(GeO4)2,-2.470665952
33303,Na2Li3GaO4,-2.091661614
33304,GdVO3,-3.256422356
33305,GdP2H9O10,-2.006329486
33306,U2Ge4Mo3,-0.201235262
33307,U4Tc7Ge6,-0.445703453
33308,Sc4Ge6Rh7,-0.929206621
33309,GePdS3,-0.75381698
33310,Ge5Ir4,-0.33931266
33311,GaP(H2O3)2,-1.977960063
33312,Rb2Ge2S5,-1.151962515
33313,GdNiO3,-2.349996408
33314,KGd(WO4)2,-2.666500095
33315,Np5Ge3,0.215367228
33316,Nd2Zn15Ge2,-0.211812442
33317,KGdTe4,-0.946033137
33318,Sr2MnGaO5,-2.691614858
33319,Gd2Zn17,-0.235169619
33320,Ga2H6(SeO4)3,-1.510044449
33321,Gd2Te4O11,-2.292219681
33322,Ge3Pt2,-0.300271121
33323,NdGe2Ir,-0.795004304
33324,Ge2W,0.067386487
33325,GeS2,-0.770700056
33326,GdNi,-0.398177315
33327,GePt,-0.47655987
33328,Ho3Ge5,-0.692630257
33329,RbGd(WO4)2,-2.659397543
33330,Gd2SiO5,-3.744785492
33331,GdNi2,-0.407074048
33332,Ga2Te3(HO2)6,-1.601453901
33333,Y3Ga5O12,-2.97371611
33334,GdZnPO,-2.032496175
33335,NaGa(TeO3)2,-1.819502984
33336,ZnGa3N3O,-0.878593651
33337,NaTi2Ga5O12,-2.646593085
33338,Gd4Ti(SeO)4,-2.840701534
33339,KGd(PO3)4,-2.926582297
33340,Gd2(MoO4)3,-2.707673052
33341,Li2Ga2GeS6,-1.164599024
33342,Rb2YGa(SiO3)4,-3.155754243
33343,KGdPdO3,-2.315028318
33344,Rb2GdGa(SiO3)4,-3.147873317
33345,KGa(PO3)4,-2.635965555
33346,Sr4GaN3O,-1.236441264
33347,Gd3Sc2(GaO4)3,-2.658345255
33348,Rb2GeO3,-2.095216742
33349,GdSI,-2.037477656
33350,Na3Ga3(TeO6)2,-2.004992854
33351,Gd10S14O,-2.566098909
33352,In4GeS4,-0.769246237
33353,Tl3Ga9S13O2,-1.18348175
33354,Li4Ga3Si3IO12,-2.679868812
33355,Gd2TiO5,-3.838059148
33356,GdTlS2,-1.813285886
33357,TbRb2Ga(SiO3)4,-3.159383185
33358,Nd4Ga2S5O4,-2.685480063
33359,RbGa2P5O16,-2.629381288
33360,Ga(MoSe2)4,-0.577046903
33361,ZnGaNO,-1.172558082
33362,GdP5O14,-2.832261646
33363,Gd4Si2Se3O7,-3.093559146
33364,U(NiGe)2,-0.352728403
33365,Gd(PO3)3,-2.996934906
33366,NaGdH2S2O9,-2.388315457
33367,LaGaSe2O,-1.993574269
33368,KGa(Te3O7)2,-1.660962778
33369,NdGaGe2O7,-2.608188415
33370,Li9Ga3P8O29,-2.690111304
33371,GdP4H4NO12,-2.427568296
33372,Gd2WO6,-3.230586396
33373,NaGaSiO4,-2.728765801
33374,RbGa3(P3O10)2,-2.622746222
33375,Na3Ga(PO4)2,-2.604470857
33376,La3GaS5O,-2.484691277
33377,Gd2SnS5,-1.840963575
33378,NaGd(PO3)4,-2.914279621
33379,RbGd(PO3)4,-2.929064536
33380,Gd2GeO5,-3.305519264
33381,Gd2S2O,-3.005555291
33382,Tm(MnGe)6,-0.320396895
33383,Ga2Mo(SeO5)2,-1.791642512
33384,MgGaMo4O7,-1.716594233
33385,LiGa(MoO4)2,-2.164604092
33386,K3Gd5(PO4)6,-3.287738933
33387,Ga2Te2MoO10,-1.909463323
33388,Gd2Mo4O15,-2.57161424
33389,Mn2Nb9Ge8,-0.350180661
33390,GdMg2Ni9,-0.277163659
33391,Ho3Mn3Ga2Si,-0.355259337
33392,RbGeI3,-0.808992231
33393,TiGe2,-0.413262876
33394,Ti5Ge3,-0.691947515
33395,Sr2GeN2,-0.812502475
33396,SrLiGaN2,-0.737621296
33397,Sr7GeN6,-0.753554245
33398,Lu3Mn3Ga2Si,-0.383737655
33399,YbGeIr,-0.781801392
33400,Na4Ge2Se5,-0.812403554
33401,GdScO3,-3.93239114
33402,Gd3Ti2MnSi3,-0.262847628
33403,Yb8Ge3Sb5,-0.853011901
33404,GdNiSb,-0.882721225
33405,Gd(NiSb)2,-0.541884973
33406,Gd(SiRu)2,-0.904051067
33407,Sm3Ge5,-0.744211269
33408,Li8Zn2Ge3,-0.348729757
33409,GdTlSe2,-1.389280061
33410,Yb2(ZnGe)3,-0.477123737
33411,NaLa(GaSe2)4,-0.947533429
33412,Ge23Mo13,-0.114373196
33413,Yb3Ge8,-0.425389885
33414,Tm3Mn3Ga2Si,-0.373068452
33415,Pr4Ge3,-0.797317091
33416,NaNd(GaSe2)4,-0.915956349
33417,Th(GeOs)2,-0.443248086
33418,Hf4NbGe4,-0.705554996
33419,Sr5(GeN3)2,-0.808136543
33420,GdRh5,-0.289093976
33421,Yb11Ge10,-0.616220027
33422,TiGeTe6,-0.303215538
33423,GdTe,-1.398904427
33424,Gd2Tl,-0.29452517
33425,Gd2Ni17,-0.186962884
33426,YGe2Ir,-0.799809426
33427,Gd2Ge2O7,-3.007754813
33428,Pu3Ge,-0.209080351
33429,GdInPt,-0.722609785
33430,Ge8Pd21,-0.486271161
33431,Gd2(Zn2Ge)3,-0.38722643
33432,NdGd2,1.670881342
33433,Ta6Ni16Ge7,-0.371630066
33434,MnNiGe,0.063100555
33435,Gd2Mo(SeO4)3,-2.269563061
33436,Gd2MoO6,-3.188013118
33437,GdP2H9O11,-2.085879935
33438,Sr6Ge5N2,-0.708109887
33439,GdSi,-0.783308969
33440,K3Gd3(PS4)4,-1.496000993
33441,Gd4P6H16O23,-2.272430622
33442,Sr2GaSbO6,-2.634805003
33443,TmMn6(GaSn2)2,-0.169125433
33444,Gd2S3,-2.471623477
33445,MnGePd,-0.294431503
33446,K6Na3GaSb4,-0.453447163