id,Composition,FormationEnergy
23610,TiCrO4,-2.713127624
23611,V2CrO7,-2.209275929
23612,Li2Cr5O12,-1.996930144
23613,Mn7Cr12O48,-1.624186494
23614,LiCr3O4,-2.056045936
23615,Ti2Cr3O12,-2.308781419
23616,Mn3Cr2Sb3O16,-1.907982285
23617,Cr3Sb3(TeO8)2,-1.839268115
23618,V5CrO12,-2.375534767
23619,Cr3(NiO6)2,-1.312301518
23620,V3Cr3(SbO8)2,-2.174486052
23621,LiCr(SO4)2,-2.199898977
23622,Cr3Ni(SO4)6,-2.008486856
23623,TmCrO3,-3.249952643
23624,Cr3Sb5O16,-1.932521968
23625,Cr2(PS4)3,-0.732806386
23626,Cr4(OF3)3,-2.577901742
23627,NaCr6O11,-2.174487202
23628,Na2Cr4O13,-1.673488589
23629,Mn3Cr3(SbO8)2,-1.933730912
23630,Cr(Si2O5)2,-2.943951067
23631,Na2Cr7O14,-2.076100769
23632,HfCrO4,-2.983046361
23633,Li6Cr5O12,-2.247015122
23634,V3CrO10,-2.105959286
23635,V3CrO8,-2.385914807
23636,Na4CrO3,-1.569414177
23637,Li17Cr2O12,-2.082323789
23638,K6Cr2O9,-1.876101093
23639,Li5Cr4O8,-2.217596165
23640,Na7Cr2O6,-1.685624534
23641,NaCr4O12,-1.664435461
23642,V4Cr2O13,-2.362085227
23643,Li9Cr19O48,-1.976482393
23644,LiCr(Si2O5)3,-2.936925824
23645,Ti7Cr12O48,-2.148977278
23646,Li2Cr(SO4)2,-2.260552023
23647,PrCrSe3,-1.208491932
23648,Ti2CrIr,-0.545353406
23649,Ta8Cr3O24,-3.059198594
23650,NdCrSe3,-1.202747817
23651,MnV2Cr,-0.19247197
23652,V2CrRe,-0.251493064
23653,V2CrOs,-0.303789639
23654,V2CrFe,-0.157477913
23655,V2CrRu,-0.245929079
23656,V2CrTc,-0.248449814
23657,CrSiRu2,-0.415537725
23658,CsCr5Te8,-0.328995184
23659,Ta2CrOs,-0.310137194
23660,Ta2CrFe,-0.125575725
23661,CrGaSe3,-0.57377377
23662,Tb(CrSi)2,-0.427079051
23663,CrSbS3,-0.87994552
23664,U2Cr3Si,-0.096127073
23665,Ho(CrGe)6,-0.199545923
23666,CrGeRh,-0.012312452
23667,TlCrS2,-0.89802714
23668,RbCr5Te8,-0.320809329
23669,Ta2CrRu,-0.279082771
23670,Nb3CrSe6,-0.824957633
23671,CrGa3P4,-0.230403991
23672,LaCrN3,-1.068741703
23673,NbCrSi,-0.496827996
23674,Mg(CrSe2)2,-0.727264703
23675,TlCrSe2,-0.327396767
23676,LaCrTeO6,-2.354459382
23677,LaCrMoO6,-2.634750091
23678,ZnCr2(PO4)2,-2.384600384
23679,LaCrSbO6,-2.399144408
23680,LaMnCrO6,-2.246215777
23681,LaVCrO6,-2.615202384
23682,LaCrWO6,-2.718657519
23683,LaCrReO6,-2.62523291
23684,LaCrSnO6,-2.304266031
23685,LaTaCrO6,-3.039343571
23686,LaCrNiO6,-1.862084869
23687,MgCr2P2O9,-2.684598888
23688,ZnCr2P2O9,-2.452829614
23689,MgCr2(PO4)2,-2.626147119
23690,LaCrCuO6,-2.018002106
23691,Cr2P2O9,-2.334067928
23692,HoMgCr2O6,-2.801959894
23693,HoZnCr2O6,-2.506964495
23694,MgCr2(CuO4)2,-1.688454674
23695,ZnCr2(CuO4)2,-1.457349716
23696,ZnCr3P3O13,-2.459270617
23697,Cr2(SiO4)3,-2.097380103
23698,Mg(CrS2)4,-1.108149304
23699,Zn(CrS2)4,-0.982983877
23700,LaTiCrO6,-2.868886898
23701,Mg3Cr2(SiO4)3,-2.978332363
23702,MgCr2F12,-2.639668465
23703,MgCr2(SiO4)3,-2.464571525
23704,MgCrP2O7,-2.758903625
23705,MgCr4O8,-2.243321374
23706,ZnCrP2O7,-2.47408077
23707,ZnCr2S5,-0.816650418
23708,Sr2YCr2O7,-2.715161402
23709,Mg2CrSbO6,-2.464659423
23710,Mg(CrN)2,-0.01293126
23711,La2ZnCrO6,-2.910087907
23712,La2MgCrO6,-3.205233392
23713,MgCr2S5,-0.966930214
23714,ZnCr4O8,-2.027694811
23715,Mg2Cr2(SiO4)3,-2.760940282
23716,Mg2CrN2,-0.662607316
23717,Zn2CrN2,0.002153009
23718,Zn(CrN)2,0.294161515
23719,Zn2CrSbO6,-1.914948463
23720,Li(CrS2)2,-1.172850624
23721,Y(CrS2)2,-1.351438252
23722,YCr4(CuO4)3,-2.021761285
23723,MgCr(PO3)4,-2.707845864
23724,Ta2Zn2CrO8,-2.656667039
23725,Mg2Ta2CrO8,-3.082897218
23726,SrCr(PO4)2,-2.701892446
23727,Ta2CrO8,-2.416008467
23728,Cr5(TeO6)3,-1.725088638
23729,Zn4Cr5(TeO6)3,-1.850109389
23730,Mg4Cr5(TeO6)3,-2.19623256
23731,ZnCrSiO5,-2.34610041
23732,MgCrPO5,-2.698886166
23733,MgCrSiO5,-2.719058527
23734,ZnCrPO5,-2.366203809
23735,CrSiO5,-2.088098909
23736,Sr2Cr2GaO7,-2.336551227
23737,Zn3Cr2(SiO4)3,-2.507900679
23738,Mg2Nb2CrO8,-2.918394229
23739,Nb2Zn2CrO8,-2.490668352
23740,Y2Cr3(SiO4)3,-2.918856833
23741,Mg2TaCrO6,-2.959168842
23742,TaZn2CrO6,-2.40302588
23743,Mg3Cr2(GeO4)3,-2.475227644
23744,Zn3Cr2(GeO4)3,-2.017469514
23745,Mg3Cr2(Si2O7)2,-2.9577051
23746,Nb2CrO8,-2.257290985
23747,Zn3Cr2(Si2O7)2,-2.60190552
23748,Mg2CrWO6,-2.544894515
23749,Zn2CrWO6,-1.991508521
23750,MgCr(SiO3)2,-2.960350306
23751,ZnCr(SiO3)2,-2.692185749
23752,Sr2Y2Cr2O7,-2.998661327
23753,Mg2CrIrO6,-2.183660477
23754,Zn2CrIrO6,-1.633431574
23755,CrIrO6,-1.138077683
23756,YCr(WO4)2,-2.510786657
23757,MgCr2CuO7,-1.834109653
23758,ZnCr2CuO7,-1.565832269
23759,Mg3Cr6(FeO6)4,-1.980954644
23760,Zn3Cr6(FeO6)4,-1.763631336
23761,ZnCr4(CuO4)3,-1.625675663
23762,MgCr4(CuO4)3,-1.778269329
23763,ZnCr(GeO3)2,-2.014309661
23764,MgCr(GeO3)2,-2.300735475
23765,Sr2CrCu2O7,-1.875282577
23766,MgCr(Si2O5)2,-3.072435061
23767,ZnCr(Si2O5)2,-2.88603199
23768,MgCr3(P2O7)2,-2.58532974
23769,CrNiP2O9,-2.007682138
23770,LaCrFeO6,-2.174076582
23771,MgCr2(PO5)2,-2.468221919
23772,ZnCr2(PO5)2,-2.250745901
23773,Mg(CrS2)2,-1.290223567
23774,TiCr(PO4)3,-2.625513825
23775,PrMgCr2O6,-2.722330144
23776,Cr13Si2(SbO14)2,-2.031955201
23777,PrZnCr2O6,-2.441124037
23778,LaMgCr2O6,-2.750275652
23779,LaZnCr2O6,-2.469694011
23780,LiCr3P3O13,-2.528836843
23781,Li3Cr2(GeO4)3,-2.034196269
23782,LiCr2P2O9,-2.526928873
23783,NaCr2P2O9,-2.530646291
23784,K3NaCr2O8,-2.075624162
23785,VCrMoO7,-2.232876223
23786,LiCrP2O7,-2.684281188
23787,NaCr(SiO3)2,-2.905234493
23788,KCrPO4F,-2.778607974
23789,SrCr(Si2O5)2,-3.185922336
23790,Cr2Fe3(SiO4)3,-2.569690751
23791,Cr4InCuSe8,-0.512506023
23792,Na3CrP8O23,-2.623959969
23793,NaCr(GeO3)2,-2.219397036
23794,NaCrP2O7,-2.664003103
23795,K2MgCr2(H2O5)2,-1.926503998
23796,KCr3H6(SO7)2,-1.99149594
23797,LiCrPO4,-2.578993356
23798,LaCrHO5,-2.429109341
23799,Sr2TaCrO6,-3.232326855
23800,LiCr2(PO4)3,-2.469367536
23801,LiCrPO5,-2.450392935
23802,LiCr(PO3)4,-2.636239961
23803,Li3Cr3(PO4)4,-2.642749572
23804,LiCr(PO3)3,-2.619973797
23805,LiCr2P3O11,-2.607356008
23806,Li3Cr(PO4)2,-2.672255663
23807,Li3Cr2(PO4)3,-2.641684208
23808,Li6Cr9(PO4)8,-2.548087219
23809,LiCr2(PO3)5,-2.57107377
23810,Li5Cr2P5O18,-2.673137842
23811,Li2CrP2O7,-2.644650936
23812,Li4Cr(PO4)2,-2.642898636
23813,Li3Cr2P5O16,-2.622523166
23814,LiCr2P5O16,-2.644191704
23815,Li2CrP4O13,-2.570448474
23816,CrSiH12(OF)6,-1.938583192
23817,LiCr4(PO4)3,-2.51099679
23818,LiCr6P7O24,-2.549389685
23819,Li9Cr3P8O29,-2.713360022
23820,Li6Cr3P8O29,-2.579189189
23821,Li7Cr4P9O32,-2.659257142
23822,Cr4Cu3(PO4)6,-2.329257767
23823,RbUCrO6,-2.787018594
23824,Li2Cr3(P2O7)2,-2.581395369
23825,Li3Cr(PO3)8,-2.511513608
23826,Li2Cr(PO3)8,-2.40922666
23827,Li2Cr(PO3)4,-2.627693108
23828,Li2Cr(PO4)2,-2.531612354
23829,Li3Cr2P5O18,-2.5065313
23830,Li4CrP2O9,-2.592504463
23831,Li3CrP2O9,-2.465959143
23832,RbCr2FeO8,-1.859941791
23833,CrP(HO)5,-1.712535463
23834,K3Cr(HO)6,-1.690629017
23835,Li2Cr(H2O3)2,-1.758064296
23836,Rb3Cr(HO)6,-0.879391089
23837,Li14Cr2N8O,-0.805063928
23838,TlV3(CrS4)2,-1.187613212
23839,K2NaCrF6,-3.135512819
23840,CrHg5S2O5,-0.918484263
23841,KRb2CrF6,-3.120250455
23842,NdCrS2O,-2.249926091
23843,Na2CrCuF7,-2.728121704
23844,KLaCr2O8,-2.380395835
23845,Na2MnCrF7,-3.04843534
23846,NaSrCrF6,-3.474916582
23847,SrCrSn(PO4)3,-2.761759059
23848,TbKCr2O8,-2.362735637
23849,Sr6Li2Cr2N8O,-1.015585998
23850,Cs2Cr(NO3)5,-1.345125164
23851,Rb2UCr(IO6)2,-1.962363192
23852,CrHg(PbO3)2,-1.520609688
23853,K8UCr4(NO12)2,-2.072946702
23854,KLiCrO4,-2.107570202
23855,K2UCr(IO6)2,-1.961974898
23856,RbV2CrO7,-2.381113937
23857,Ti4Cr3(PO4)6,-2.807371727
23858,Na5CrP2(O4F)2,-2.706377017
23859,CrP2Pb5O13,-2.113126049
23860,K4Cr(NO5)2,-1.747195552
23861,CrP3H17N3O13,-1.53282166
23862,LiCr2P3O10,-2.578547422
23863,Cr3H8(NO5)2,-1.25360093
23864,Rb2Cr4Cu(HO4)4,-1.614419672
23865,Cs2Cr4Cu(HO4)4,-1.618980312
23866,CrP3(HO5)2,-2.401593687
23867,SrLi2CrN3,-0.97204669
23868,UTl2Cr2O10,-2.132902011
23869,TlCr(MoO4)2,-2.035729797
23870,NaSr2CrF8,-3.668717196
23871,Cr4FeCuS8,-0.972476202
23872,LiMgCr3(SO4)6,-2.231244634
23873,LiCr(PO4)2,-2.3845113
23874,Li2Cr5(PO4)4,-2.491267739
23875,CsUCrO6,-2.79931975
23876,Li2Cr(PO3)5,-2.625892724
23877,LiCr(PO3)5,-2.500523885
23878,LiCrP4O13,-2.412412637
23879,LiCr4P7O24,-2.595275684
23880,Li3Cr4P9O32,-2.499235973
23881,LiCr2P3O13,-2.302261263
23882,Sr2La3Ti2Cr3O15,-3.335917796
23883,K2TiCr(PO4)3,-2.855963345
23884,KCrP2S7,-0.974289657
23885,Cr2H24(IN3)3,-0.629679372
23886,CrP2H17N4O9,-1.388732971
23887,Li14Mn22Cr3Cu3O56,-2.004026209
23888,KCrH24(SO10)2,-1.59280372
23889,CrH18(O3F)3,-1.607165785
23890,ZrCrCu2(PO4)3,-2.52368239
23891,Li3La8Ti9Cr3O36,-3.438111586
23892,Li2Cr2H4O9,-1.72093392
23893,K2ZnCr4(HO4)4,-1.718734607
23894,CrP2H15N2O11,-1.581874194
23895,CrP2H13(NO5)2,-1.601163959
23896,SrLa4TiCr4O15,-3.260192836
23897,Li3Cr13Ni3(SO4)24,-2.099014782
23898,CrH8(NO2)2,-1.083520688
23899,ErCrHO5,-2.427449277
23900,CrP2H14(NO3)3,-1.491239173
23901,Na3Cr2P2O8F3,-2.750039039
23902,CrP2H16N3O10,-1.114971918
23903,CrH20S2(NO7)2,-1.436182111
23904,CrH10SNO10,-1.480369921
23905,CrH6SO7,-1.673085952
23906,CrH12N3(OF2)3,-1.390427819
23907,CrPdH12(NO)4,-0.890591082
23908,CrH18I7N6,-0.561927293
23909,Li2Mn3CrO8,-2.098792155
23910,Li2CrSi7O16,-3.01447305
23911,Li4MnCr(WO6)2,-2.17634369
23912,K3MnCrO8,-1.799880622
23913,Li4Cr3Ni3(TeO8)2,-1.834926198
23914,Li2CrP3O10,-2.623491787
23915,Li2Cr2P2O9,-2.56163664
23916,Li2CrSiO5,-2.547569978
23917,Li2CrPO5,-2.563444935
23918,Li2Cr4Si4O13,-2.676967127
23919,Li2Cr2Si5O13,-2.922756033
23920,Li4VCr(WO6)2,-2.312461209
23921,Li4Cr3Ni3(WO8)2,-1.971359685
23922,Li2Cr3WO8,-2.335658742
23923,Li2NbCr3O8,-2.567579271
23924,Li3CrSi2O7,-2.777966386
23925,Li4Cr2Si3O10,-2.738996201
23926,Li3CrSiO5,-2.602390654
23927,Li2CrNiO4,-1.895303021
23928,Li4Ti3Cr3(SbO8)2,-2.614459627
23929,Li4Cr2Si4O13,-2.841911864
23930,Li5Cr6P5O24,-2.532015692
23931,Na5CrHO4,-1.575952011
23932,Li6Cr5(P2O7)4,-2.586840805
23933,Li14Cr9(P2O7)8,-2.603866103
23934,Li2Cr4P4O15,-2.483593596
23935,CrH10S2(NO2)4,-1.232207143
23936,Ti2V3Cr(PO4)6,-2.730951487
23937,Cr3Fe3(TeO8)2,-1.77625751
23938,V3Cr3(TeO8)2,-2.071481432
23939,Li7Cr7P6(O8F)3,-2.602656475
23940,Li2VCrO4,-2.435013812
23941,Li5Mn3Cr2O10,-2.228860839
23942,Li5Cr3FeO8,-2.112309628
23943,Li3CrFe3O8,-2.025409205
23944,Li5V3CrO8,-2.293898603
23945,Li3Mn3CrO8,-2.109599492
23946,Li10V5Cr3O16,-2.290861976
23947,Li4Cr3Fe3(WO8)2,-2.098333016
23948,Li10V3Cr5O16,-2.250590462
23949,Li5Cr3NiO8,-2.123045735
23950,Li5V2Cr2O8,-2.266977234
23951,Li5VCr3O8,-2.233313352
23952,Li5MnCr3O8,-2.238057188
23953,Li4Cr2Ni3Sb3O16,-1.867165309
23954,Li4Mn3Cr2Sb3O16,-2.115525905
23955,Li4CrSb(WO6)2,-2.251313666
23956,Li3VCr3O8,-2.363108117
23957,Li10Mn3Cr5O16,-2.188078362
23958,Li8Mn3CrO12,-2.111312438
23959,Cr2H21I7(N2O)3,-0.761444239
23960,LiVCr(P2O7)2,-2.655515146
23961,Cr3NiTe2(PO4)6,-2.28348827
23962,MnCr3Te2(PO4)6,-2.350567939
23963,Li11Cr3Fe3O16,-2.083505509
23964,Li4TiCr5O12,-2.455090974
23965,Li9Ti7Cr6O30,-2.703182205
23966,Li4Mn3Cr3(CuO8)2,-1.897856756
23967,Li4CrFe3O8,-2.155298449
23968,Li4Cr3FeO8,-2.229917809
23969,Li3V3CrO8,-2.384950778
23970,Li2CrFeO4,-2.233694802
23971,Li4TiCr3O8,-2.517242564
23972,Li5Cr2Fe3O10,-2.169978062
23973,V3CrSb2(PO4)6,-2.514415577
23974,Li2Cr3CuO8,-1.949478035
23975,LiCrSi3O8,-2.936260449
23976,Li4Cr(PO4)3,-2.497865698
23977,Li2Cr5(Si2O5)6,-2.879117468
23978,Li6Cr5CuO12,-2.199275551
23979,VCrP2(HO5)2,-2.288103766
23980,Li8MnCr3O12,-2.142195996
23981,LiCr2(PO4)2,-2.521070512
23982,Li8Cr3SbO12,-2.187729371
23983,Li10Cr(SiO5)2,-2.469812697
23984,Li3TiCr3O8,-2.58422421
23985,Li2TiCr2O6,-2.630184263
23986,Cr8Ni50Mo15W2,-0.055081064
23987,LiCr3Ni(SO4)6,-2.089327663
23988,Li3Cr4(PO4)6,-2.473752575
23989,LiCr2(PO5)2,-2.321007286
23990,Li8Cr3TeO12,-2.15404325
23991,Li8Cr(FeO4)3,-1.964696165
23992,VCr(P2O7)2,-2.565863716
23993,Li4Mn2Cr3Sb3O16,-2.176453762
23994,LiLa2Ti2CrO9,-3.387272341
23995,LiTiCrSO8,-2.362420844
23996,K2Li3CrO4,-1.927801191
23997,Mn3CrTe2(PO4)6,-2.328472094
23998,Li4TiV4Cr4O18,-2.476935975
23999,Li5Cr17(SiO16)2,-2.402190588
24000,Li4VCr3O8,-2.414402924
24001,Li4V3CrO8,-2.455479624
24002,Li4Ti4Cr(Fe2O9)2,-2.571283966
24003,Li7Mn10Cr6O32,-2.155596232
24004,MgCr3Se2(SO6)4,-1.926748212
24005,LiZnCr3(SO4)6,-2.131156932
24006,MgCr3(SO4)6,-2.153435428
24007,Li10Ti11Cr9O40,-2.928151338
24008,Li2VCr3O8,-2.321579616
24009,LiV3CrO8,-2.380588125
24010,Li2V3CrO8,-2.430216367
24011,V2CrFe3(PO4)6,-2.493856096
24012,Li4TiCrO6,-2.608323947
24013,Li4Cr3NiO8,-2.148547298
24014,Li4Cr3Ni2Sb3O16,-1.995919935
24015,Li2Cr3SnO8,-2.270191362
24016,Li3Cr(CuO2)4,-1.535598487
24017,Li3Cr(FeO2)4,-1.970615336
24018,Li3MnCr4O8,-2.217735638
24019,Li2CrFe3O8,-1.905389882
24020,Li4CrCu3O8,-1.642576203
24021,Li2Cr3FeO8,-2.093063975
24022,Li2TiCrO4,-2.657536829
24023,Li5Cr2Cu3O10,-1.780157031
24024,Li3VCr2O6,-2.425802564
24025,Li4CrFe(WO6)2,-2.140691485
24026,Li24Mn7Cr5O36,-2.206554962
24027,Li4MnCrO6,-2.210930392
24028,Li3Cr3FeO8,-2.161579912
24029,Li3Cr3NiO8,-2.046604943
24030,LiCrNiO4,-1.66908205
24031,Li24Mn5Cr7O36,-2.21498285
24032,Li24Mn11CrO36,-2.189475548
24033,Li24MnCr11O36,-2.235613697
24034,Li4Ti2Cr3Fe3O16,-2.355662137
24035,Li4V2Cr3Fe3O16,-2.217835251
24036,Li8Mn15CrO32,-2.084120362
24037,Li4Cr3Cu3(TeO8)2,-1.813432952
24038,Li4Ti2Cr3Ni3O16,-2.119271349
24039,TiCr(PO4)2,-2.837062603
24040,Li3Cr3CuO8,-2.053099087
24041,Li4CrH8SO7,-1.676776932
24042,Li4Cr5Sn3O16,-2.233248076
24043,CrPO4F,-2.473211753
24044,Li2MnCrO4,-2.263971567
24045,V5Cr(PO4)6,-2.629178003
24046,Ti3Cr3(SbO8)2,-2.538878125
24047,Ti3Mn3Cr2O16,-2.413165033
24048,Li4Cr5FeO12,-2.166740809
24049,Li3Cr10Fe5O24,-2.226436339
24050,Mn3Cr3(SnO8)2,-1.89843457
24051,Li3Mn4CrO8,-2.150800981
24052,Li4Nb5Cr3O16,-2.593112718
24053,CrFe5(PO4)6,-2.416104151
24054,Li4MnCr3O8,-2.329924393
24055,Li4MnCr5O12,-2.214377831
24056,Li24Ti5Cr7O36,-2.551444767
24057,Li24Ti7Cr5O36,-2.676937285
24058,Li3Cr3GaO8,-2.282117288
24059,Cr3Sn3(SbO8)2,-1.998292128
24060,Li4CrNi3O8,-1.638810213
24061,Li5Mn5Cr2O12,-2.180554844
24062,Li4Ti3Cr5O16,-2.703331607
24063,Li4Mn3Cr5O16,-2.20253982
24064,Li7Cr3(WO8)2,-2.216391976
24065,Ti2Mn3Cr3O16,-2.246058475
24066,Li5V3Cr2O10,-2.414708598
24067,Li5Cr2Ni3O10,-1.790542414
24068,Li2VCr2O6,-2.36368704
24069,LiCr3(FeO4)2,-2.192798239
24070,Li3V2CrO6,-2.440339796
24071,Li3Cr(FeO3)2,-2.182942407
24072,MnV4CrO12,-2.324416865
24073,Li4Nb3Cr5O16,-2.542935754
24074,LiTiCrO4,-2.88997022
24075,Li2Ti3CrO8,-3.074331574
24076,Li4NbCr5O12,-2.428895263
24077,Li4Cr3CuO8,-2.151473466
24078,Li3Cr2NiO6,-2.063416666
24079,Mn3Nb2Cr3O16,-2.254638659
24080,Li2Cr2SnO6,-2.251021197
24081,Li4Ti3Cr2Fe3O16,-2.549663675
24082,Li4Cr3Fe3(SbO8)2,-2.126866687
24083,CrCu3(PO4)4,-2.024551063
24084,Li4Cr5WO12,-2.294228533
24085,Li3Cr(NiO2)4,-1.528082261
24086,Li2Cr3SbO8,-2.317188736
24087,Mn5Cr(PO4)6,-2.443545737
24088,Li2Cr3NiO8,-1.983741881
24089,Li4V3Cr3(WO8)2,-2.380724691
24090,CrNi5(PO4)6,-1.975062541
24091,Li4Mn5Cr3O16,-2.140070254
24092,LiNbCrO4,-2.588880409
24093,Mn3Cr(PO4)6,-2.247078305
24094,CrNi(PO4)2,-2.184065605
24095,Mn3Cr3(TeO8)2,-1.847149179
24096,Li4Cr3Fe5O16,-1.986910328
24097,CrSn(PO4)2,-2.459331913
24098,Li9V12Cr7O48,-2.279398687
24099,CrFe(PO4)2,-2.474418337
24100,Li2Cr3Ni(SO4)6,-2.104291903
24101,LiCrSnO4,-2.284544815
24102,Mn3V2Cr3O16,-2.0370962
24103,Li4Cr3Sn5O16,-2.210842966
24104,Li6Cr3Sb3O16,-2.136871286
24105,Li4Cr5Fe3O16,-2.086137646
24106,Li3Cr4FeO8,-2.193402287
24107,Li5Cr2Fe5O12,-1.959917866
24108,Li5Cr2Cu5O12,-1.604164277
24109,Li3Cr(NiO3)2,-1.714494156
24110,Li4Ti3CrO8,-2.801150351
24111,Li3Ti3CrO8,-2.903652637
24112,LiMn3CrO8,-2.025065619
24113,Li3Ti2CrO6,-2.764609977
24114,Li3Nb2CrO6,-2.507391719
24115,Li2CrCuO4,-1.872933723
24116,Li3Cr2FeO6,-2.290144615
24117,Li3Cr3SiO8,-2.524846409
24118,Cr3Cu(PO4)4,-2.378785125
24119,Li4Cr3P4O15,-2.578594954
24120,TiV2CrO10,-2.287543186
24121,Li4Ti3Cr3(WO8)2,-2.641742963
24122,CrFe3Cu2(PO4)6,-2.235321163
24123,Li4Ti2V3Cr3O16,-2.662602626
24124,Li4V3Cr3(FeO8)2,-2.314552667
24125,Li7Cr2P7O24,-2.642844266
24126,Li2TiCr3O8,-2.546710475
24127,Li4Cr3Fe2Sb3O16,-2.032626686
24128,Li7Cr7(P4O17)2,-2.552511197
24129,Li4Ti3V3Cr2O16,-2.784751772
24130,Cr3Sn2Sb3O16,-2.00312373
24131,Li2Cr2(Si2O5)3,-2.902767214
24132,MgCr3Se3(SO8)3,-1.812203488
24133,Li2ZnCr3(SO4)6,-2.148038325
24134,Li5V5Cr2O12,-2.351113031
24135,CrSn3(PO4)6,-2.365092468
24136,TiCr3(PO4)6,-2.478369351
24137,Cr3Sb(PO4)6,-2.355702548
24138,LiVCrO4,-2.445884582
24139,CrNi3(PO4)4,-2.035145823
24140,LiCrFeO4,-2.060240513
24141,CrPHO5,-2.186456896
24142,Li2CrWO6,-2.20727692
24143,Li4Cr3Ni3(SbO8)2,-1.892837665
24144,Li5Cr2Ni5O12,-1.636797705
24145,Li3MnCr2O6,-2.301780121
24146,Li4Cr2Fe3Sb3O16,-2.061799106
24147,Li3Cr3(NiO6)2,-1.729737245
24148,Li2MgCr3(SO4)6,-2.242943708
24149,Li3Cr3(CuO6)2,-1.718899316
24150,VCr3(PO4)6,-2.4001023
24151,Cr3Ni(PO4)6,-2.184445029
24152,Ti3Cr(PO4)6,-2.765368245
24153,MnCr3(PO4)6,-2.303344003
24154,Nb3Cr(PO4)6,-2.844738739
24155,Li2MnCr3O8,-2.244284703
24156,V3Cr(PO4)6,-2.538752417
24157,MnCr(PO4)2,-2.504837052
24158,Cr3Sb(PO4)4,-2.465810248
24159,Li2MnCr2O6,-2.187217608
24160,Li2Mn2CrO6,-2.108737378
24161,Li4Cr2Ni3Te3O16,-1.687005115
24162,Li4Cr3Fe3(SnO8)2,-2.137129696
24163,CrSb(PO4)2,-2.403213731
24164,Li2Cr2FeO6,-2.02928012
24165,Li4Cr3Sn3(SbO8)2,-2.14483772
24166,MnCr3(PO4)4,-2.533493317
24167,Li2Cr3(FeO6)2,-1.887219865
24168,Cr3Ni(PO4)4,-2.392702488
24169,Cr3Fe(PO4)6,-2.289596999
24170,CrSb3(PO4)6,-2.409903722
24171,Cr3P6WO24,-2.43462103
24172,Cr2Te(PO4)3,-2.348914078
24173,Cr3Fe2Sb3O16,-1.890035306
24174,Mn3CrCu2(PO4)6,-2.24652983
24175,Li2Mn2Cr3O12,-1.974776537
24176,LiCr3P4O15,-2.581770971
24177,Li2Cr3TeO8,-2.166311682
24178,Na4CrH8SO7,-1.603741321
24179,Li4Cr3Cu2Sb3O16,-1.95996438
24180,Li4Ti4VCr4O18,-2.767945365
24181,Mn3Cr(PO4)4,-2.478320659
24182,Li2Cr3P5O18,-2.568899835
24183,Li4Ti2V3Cr4O18,-2.574904663
24184,Li4V2Cr3Sb3O16,-2.199906524
24185,Li6Ti7Cr5O24,-2.952886177
24186,CrP6(WO8)3,-2.53700524
24187,Li3Mn5Cr3O16,-2.130069357
24188,Li4Ti3V4Cr2O18,-2.693048877
24189,Li4CrTe2WO12,-1.997257593
24190,Li4Cr2Cu3Sb3O16,-1.830116872
24191,Li4V2Cr3Sn3O16,-2.300401592
24192,Li4Cr2TeWO12,-2.070821375
24193,Li4Mn3Cr3(TeO8)2,-2.084924762
24194,Li4Cr3Sn3(TeO8)2,-2.059771753
24195,Li3Mn2CrO6,-2.208120737
24196,Li4Cr3Cu3(WO8)2,-1.973975984
24197,Li4Cr3Fe2Sn3O16,-2.149629264
24198,CrTe(WO6)2,-1.739101071
24199,Li4Cr5SbO12,-2.280566746
24200,Cr2Ni3Sb(PO4)6,-2.196024343
24201,V3Cr3(WO8)2,-2.271641817
24202,CrFe3Sb2(PO4)6,-2.410707565
24203,Ti3CrCu2(PO4)6,-2.721206365
24204,Ti3Nb2Cr(PO4)6,-2.779443837
24205,Cr2Fe3Cu(PO4)6,-2.343384239
24206,Mn3Cr2Sb(PO4)6,-2.420693867
24207,TiCr2Ni3(PO4)6,-2.324264542
24208,Mn3Cr2Cu(PO4)6,-2.323914422
24209,Li4Cr(WO4)3,-2.294342299
24210,Li4Ti3Cr3(FeO8)2,-2.618808793
24211,Ti5Cr(PO4)6,-2.90387864
24212,CrFe3Sn2(PO4)6,-2.40229481
24213,Li4Mn3Cr3(SbO8)2,-2.22050247
24214,Li4Ti3V2Cr4O18,-2.664021468
24215,Cr2P4H3O16,-2.175051018
24216,V3CrSn2(PO4)6,-2.551430574
24217,Li4Ti2Cr3Sn3O16,-2.473331604
24218,Li4Ti3Cr3(SnO8)2,-2.670090603
24219,Ti2Cr3Sb3O16,-2.360807231
24220,Ta2CrNO5,-2.686291772
24221,Mn2Cr(PO4)3,-2.419531525
24222,Ti3Mn2Cr3O16,-2.440462886
24223,Ti3CrFe2(PO4)6,-2.823712292
24224,Li3V4CrO8,-2.343171939
24225,Li4V5Cr3O16,-2.449617067
24226,Li4Mn3Cr3(WO8)2,-2.247010906
24227,Ti3CrSn2(PO4)6,-2.802234087
24228,Li4CrTe(WO6)2,-2.143088612
24229,Li4V3Cr3(SbO8)2,-2.359143729
24230,Ti3Cr2Sb(PO4)6,-2.754578932
24231,VCr2Fe3(PO4)6,-2.476690714
24232,Li4V3Cr2Sn3O16,-2.314724254
24233,Li4Ti5Cr3O16,-2.956705634
24234,CrFe2(PO4)3,-2.447648458
24235,MgCr7(SO4)12,-2.147051327
24236,Li32Ti13Cr3O48,-2.850279675
24237,Ti3CrNi2(PO4)6,-2.716260479
24238,Li32Ti3Cr13O48,-2.380398499
24239,Ti3Nb2Cr3O16,-2.859487815
24240,Li4V3Cr3(SnO8)2,-2.389475275
24241,Li8Mn13Cr3O32,-2.132476481
24242,Li4Cr2Fe3Sn3O16,-2.085268521
24243,Li2Cr2(PO4)3,-2.574453806
24244,Li24TiCr11O36,-2.30060216
24245,Mn7Cr(PO4)12,-2.225415362
24246,Li4V3Cr2Fe3O16,-2.253181419
24247,Li9Cr3(WO4)7,-2.212175935
24248,Li4V3Cr3(CuO8)2,-2.10841196
24249,Li2V3Cr2O12,-2.333731478
24250,Ti3CrSb2(PO4)6,-2.693570951
24251,Li4V3Cr5O16,-2.397808507
24252,Li4Cr7(PO4)6,-2.48338446
24253,Li32Mn3Cr13O48,-2.228516247
24254,Li3Cr2(PS4)3,-1.012044256
24255,LiCr2(PS4)3,-0.849727643
24256,LiLa3Ti3CrO12,-3.460257645
24257,V3Cr2Sb3O16,-2.134622677
24258,Li32Mn13Cr3O48,-2.194810723
24259,Li24Ti11CrO36,-2.930795956