id,Composition,FormationEnergy
32027,Mn11Fe(PO4)12,-2.449769421
32028,Fe5P6WO24,-2.4367887
32029,VFe2(PO4)3,-2.460181382
32030,Na2Fe(Si2O5)3,-2.873595236
32031,Ti3VFe2(PO4)6,-2.833585449
32032,ZnFe2(PO4)3,-2.305200842
32033,Mn2Fe3Sn(PO4)6,-2.445288093
32034,Li4Fe3Sn2Sb3O16,-1.951127591
32035,Li6VFe5O12,-1.988331679
32036,Li4Ti3Fe3(SbO8)2,-2.494608171
32037,LiFe(Si3O7)2,-2.981113703
32038,Li2Fe(PS3)2,-0.930162042
32039,Li2FeP3O10,-2.563779662
32040,Li5Fe(P2O7)2,-2.600174482
32041,Li6TiFe5O12,-2.223793406
32042,FeSb(PO4)2,-2.336521387
32043,Nb3Fe(PO4)6,-2.814501384
32044,Li3Fe2Ni5O12,-1.292835746
32045,Sr2YTlFe2O7,-2.491435087
32046,SrZnFe(PO4)2,-2.710478902
32047,SrMgFe(PO4)2,-2.934268697
32048,Sr3Fe2S2O5,-2.191084986
32049,Sr2FeSO3,-2.334368693
32050,Sr2YGaFe2O7,-2.673158833
32051,ZnFeNiP2O9,-2.072994691
32052,MgFeNiP2O9,-2.301000971
32053,LaMgTiFeO6,-3.095668396
32054,LaMgVFeO6,-2.783438981
32055,LaMgFeNiO6,-2.201063372
32056,LaMnZnFeO6,-2.316357981
32057,LaTiZnFeO6,-2.636893339
32058,LaMgFeWO6,-2.671104172
32059,LaMgFeSbO6,-2.616396505
32060,LaZnFeNiO6,-1.917793665
32061,LaMgTaFeO6,-3.110339402
32062,LaMgFeMoO6,-2.657535572
32063,LaMgMnFeO6,-2.600363641
32064,LaZnFeSbO6,-2.32975309
32065,LaVZnFeO6,-2.51687199
32066,LaZnFeSnO6,-2.363853778
32067,LaZnFeWO6,-2.40788953
32068,LaZnFeMoO6,-2.394302904
32069,LaMgFeSnO6,-2.643100316
32070,LaTaZnFeO6,-2.863661177
32071,TiZnFe(PO4)3,-2.672796208
32072,MgTiFe(PO4)3,-2.854841009
32073,Y4Fe13Si2(SbO14)2,-2.338568043
32074,GaTe,-0.363964763
32075,LuGa,-0.606961405
32076,MnGa,-0.132370123
32077,Ga,0.00478131
32078,LaGa,-0.596327944
32079,GaN,-0.293390954
32080,Ti2Ga,0.428244434
32081,NaGaTe2,-0.584790865
32082,GaSb,-0.149645897
32083,HoGa,-0.62839291
32084,GaP,0.033293428
32085,Hf2GaSb3,-0.449951963
32086,LaZnGa,-0.537753699
32087,MnGaGe,-0.107391957
32088,PrZnGa,-0.535973837
32089,SmZnGa,-0.557694988
32090,Rb5GaO4,-1.66003662
32091,Sr5(Ga3O7)2,-2.740042552
32092,Sr2Ga2O5,-2.765292396
32093,TiGaPd,-0.647077922
32094,TbGaI,-1.052113831
32095,Zr(VGa2)2,-0.399449209
32096,Hf(VGa2)2,-0.349229491
32097,Ho(TiGa2)2,-0.532008686
32098,HfGa5Ni,-0.333781929
32099,ScGa5Ni,-0.446858532
32100,NpGa5Ni,-0.308765243
32101,Sc(TiGa2)2,-0.516993636
32102,Tm(TiGa2)2,-0.526476681
32103,Tb(TiGa2)2,-0.534448024
32104,GaPPt5,-0.459197893
32105,GaPPd5,-0.571000845
32106,Zr(TiGa2)2,-0.515402148
32107,TiGa5Ni,-0.313055626
32108,Lu(TiGa2)2,-0.518687839
32109,Sc(VGa2)2,-0.410741171
32110,SmGa2Ni,-0.643652411
32111,HoGa2Ni,-0.647809269
32112,TmGa2Ni,-0.650054015
32113,PrGa2Ni,-0.62885793
32114,Ti2GaN,-1.303314759
32115,GaPt,-0.637307682
32116,LuGa2Ni,-0.647293773
32117,SmGaSb2,-0.637971831
32118,Nb5Ga13,-0.313395218
32119,YbGa4,-0.407288682
32120,NdMgGa,-0.492940552
32121,TmMgGa,-0.473889253
32122,SmMgGa,-0.499704967
32123,GaSe,-0.591394524
32124,HfGa3,-0.382734193
32125,GaIr,-0.382072038
32126,LiGaSi,-0.163973895
32127,TmGa2Pd,-0.796352189
32128,Nb3Ga2,-0.352027319
32129,NdGa2Ni,-0.62795771
32130,Ga3Ni2,-0.408239583
32131,Ga3Ni5,-0.371964103
32132,ScGaNi2,-0.569901999
32133,ScGa2Ni,-0.646206415
32134,PrGa,-0.582294058
32135,Pr3Ga,-0.234964216
32136,GaPt3,-0.436623044
32137,ScGa,-0.6032337
32138,ScGa2,-0.562007383
32139,Sm9Ga4,-0.379473296
32140,TaGa3,-0.166224591
32141,TbGa,-0.628174793
32142,TbGa3,-0.526368798
32143,ThGa2,-0.6377262
32144,YGa,-0.66433596
32145,HfGa2,-0.454961088
32146,Hf2Ga3,-0.493360858
32147,HoGaNi,-0.653497213
32148,YGa2Ni,-0.654993363
32149,Y(TiGa2)2,-0.539958589
32150,LiGaSe2,-0.911813986
32151,LiYGa4,-0.499736683
32152,Nd3GaO6,-3.467020021
32153,HoMnGa,-0.204618711
32154,Ga2O3,-2.254014785
32155,HoGa2,-0.62741505
32156,TbGaPd,-0.899711518
32157,YbGaGe,-0.617221213
32158,YbGa4Ni,-0.501538513
32159,LiGa,-0.324230755
32160,Ga2Se3,-0.585393517
32161,YbGa2,-0.550693587
32162,Mg(ScGa)2,-0.512482633
32163,K3GaO3,-1.911936331
32164,Rb3GaO3,-1.847091696
32165,Lu3Ga5O12,-3.004571579
32166,Ga8(Pb3O7)3,-1.927588983
32167,TlGaO2,-1.617886461
32168,Ga2Sn2S5,-0.956124738
32169,Sr(GaS2)2,-1.554226376
32170,NdGa,-0.590403657
32171,RbGa7,-0.103401066
32172,Sr2Ga2S5,-1.748122663
32173,Nb4GaSe8,-0.801920109
32174,Nd3Ga5O12,-2.920676986
32175,K2GaP2,-0.469255283
32176,K2Ga2Sb3,-0.36326773
32177,Ga(PO3)3,-2.586301696
32178,Ho3Ga5O12,-2.994898545
32179,Pr4Ga2O9,-3.321223734
32180,Zn(GaSe2)2,-0.645677626
32181,Zn(GaTe2)2,-0.38082807
32182,TmGa3,-0.499210125
32183,Ga2HgTe4,-0.299885761
32184,Ta3Ga2,-0.2782742
32185,Ga7Ni3,-0.325145187
32186,Sr3(GaN2)2,-0.775705377
32187,Na3GaSe3,-0.972925951
32188,Nb5GaSn2,-0.235612134
32189,TlGaSe2,-0.583320132
32190,Sc5Ga3,-0.521326145
32191,TmGa3Ru,-0.576575592
32192,KGaS2,-1.384766096
32193,Mg5Ga2,-0.129627823
32194,YGaO3,-3.149014997
32195,KGaTe2,-0.70177164
32196,Nb5Ga4,-0.336659011
32197,KGa3,-0.169932161
32198,Na3GaS3,-1.323132767
32199,SrGa2,-0.502795483
32200,SrGa4O7,-2.516484075
32201,SrGa4,-0.416572572
32202,Sr6Ga5N,-0.524185732
32203,Ga7Te10,-0.327239649
32204,TbGa3Os,-0.488489876
32205,Sr6GaN5,-0.75187426
32206,GdGaO3,-3.088606747
32207,GaPd2,-0.646778068
32208,YGa2,-0.6629153
32209,GaNi,-0.365009872
32210,TmGa2,-0.594685187
32211,KNa2Li3Fe2(Si2O5)6,-2.99847924
32212,Na2LiFe(Si2O5)3,-2.978972022
32213,NbGa3,-0.300932804
32214,GdGa2,-0.647245208
32215,LaGa2,-0.707280539
32216,NpGa2,-0.149232198
32217,InGaS3,-1.016853545
32218,Mn(GaS2)2,-1.045559684
32219,UGa3,-0.22517949
32220,MnGaNi2,-0.287485062
32221,Mn(GaSe2)2,-0.562256632
32222,MnGaPt,-0.185670785
32223,GdGa,-0.620820852
32224,LiGa2Pt,-0.61889459
32225,Sm3Ga,-0.234306646
32226,HfGaPd,-0.724248742
32227,V2Ga5,-0.227680544
32228,InGaTe2,-0.298557855
32229,Pu3Ga,0.642784161
32230,La3Ga,-0.269644607
32231,Ga2PbO4,-2.086320996
32232,LiGa2Ru,-0.350170609
32233,UGa2,-0.062243408
32234,NpGa3,-0.18703487
32235,UGa3Pd2,-0.442472315
32236,TaGaNi2,-0.354188011
32237,PuGa2,-0.379988719
32238,LaGa3Pd2,-0.774570092
32239,Mn2VGa,-0.224512257
32240,UGa5Ni,-0.322506943
32241,UGaNi,-0.295711339
32242,PuGa3,0.149980178
32243,Ga3Pt2,-0.599669985
32244,U2Ga8Ru,-0.300573525
32245,V4GaSe8,-0.73624272
32246,LaMgGa,-0.493268031
32247,La3(GaNi)2,-0.52364405
32248,Ga9Ni13,-0.391470077
32249,Sm5Ga3,-0.466634535
32250,V8Ga41,-0.178386782
32251,Ga2Pt,-0.587220543
32252,GaPt2,-0.54570481
32253,TbGaPt,-1.107848551
32254,GaRu,-0.322124275
32255,Hf5Ga3,-0.440639802
32256,V3Ga,-0.175000779
32257,ZrGaNi2,-0.528894611
32258,TiGaPt,-0.818503472
32259,Ga2Te5,-0.237649086
32260,GaMo3,-0.151131216
32261,GaHO2,-1.934325753
32262,NaGaH4,-0.197417107
32263,Ga3Pd5,-0.638030974
32264,GaRh,-0.693592718
32265,GaS,-0.98448807
32266,NdGa2,-0.693277495
32267,MgFe2P2(HO)18,-1.782760279
32268,Nb3Ga,-0.158342986
32269,TbGa2,-0.659788262
32270,HoGa3,-0.515517529
32271,Ga2TeS2,-0.833611195
32272,TiGa3,-0.370289165
32273,Na8Ga2O7,-1.890192925
32274,Mg2Ga5,-0.119957879
32275,TiGa,-0.466916586
32276,LiGa5O8,-2.326900468
32277,Na2(GaSb)3,-0.273306013
32278,Ga3Te3I,-0.410710282
32279,Na4Ga2S5,-1.318367099
32280,Ga2TeO6,-1.944635117
32281,Gd3Ga5O12,-2.945006056
32282,Li2Ga,-0.299685448
32283,LiGaI3,-0.780544998
32284,Rb3GaP2,-0.409615836
32285,Rb2GaSb2,-0.414725643
32286,KGaSb4,-0.232745945
32287,K5GaSe4,-1.099953907
32288,KGaSb2,-0.329069893
32289,KGaI4,-0.883364661
32290,Ga4GeO8,-2.247213133
32291,NaGa3Te5,-0.472051645
32292,GaTeI7,-0.307797048
32293,PuGa,-0.328475006
32294,Ga3Ni5Ge2,-0.362648984
32295,GaP2I9,-0.238845555
32296,Li2GaRh,-0.487616084
32297,Ga3Ni13Ge6,-0.338064037
32298,K2GaSb2,-0.41924528
32299,Sr3Ga4O9,-2.737491927
32300,Ga2Te4O11,-1.728226796
32301,HfGa2Ni,-0.540577936
32302,Hf2Ga,-0.40204174
32303,Hf3Nb2Ga3,-0.457133684
32304,HoGa4Ni,-0.528793934
32305,LiMg2Ga,-0.177245874
32306,Mg2Ga,-0.135209027
32307,MgGa2,-0.125628275
32308,Sc3(MnGa3)2,-0.462228431
32309,Ga4Ni3,-0.395108681
32310,TiGaNi,-0.545910892
32311,TiGaNi2,-0.539754325
32312,VGaNi2,-0.288147871
32313,YGa2Ni3,-0.551743924
32314,Ga5Pd,-0.252655493
32315,ScGaPd2,-0.873310394
32316,Zn3Ga4Pd7,-0.602527836
32317,Ga3Pt5,-0.559203032
32318,Ga17Rh10,-0.603678752
32319,Sc3Ga2,-0.574006804
32320,Sr8Ga7,-0.399445225
32321,Ta5Ga3,-0.168927268
32322,ThGa,-0.527796172
32323,Th3Ga2,-0.407857083
32324,Ti3Ga,-0.320239469
32325,Ti2Ga3,-0.455532724
32326,Ti5Ga3,-0.40569823
32327,Ti5Ga4,-0.436054693
32328,Zr3Ti2Ga3,-0.509999473
32329,Tm3Ga5,-0.626417352
32330,YGa6,-0.329652886
32331,ZrGa,-0.632618914
32332,ZrGa2,-0.563483045
32333,Zr3Ga2,-0.543071696
32334,ZrGa3,-0.477659309
32335,Zr2Ga3,-0.610998465
32336,Hf11Ga10,-0.492887748
32337,Nb5Ga3,-0.0750015
32338,Ti4Ga3Ni2,-0.446245961
32339,Zn36Ga5Ni8,-0.151174203
32340,Sm(GaPd)2,-0.783257822
32341,LaGa6Pd,-0.530924526
32342,Ga5Rh3,-0.600724993
32343,Ga2PdI8,-0.437851885
32344,GaI3,-0.500006093
32345,GaPS4,-0.85980159
32346,Ga3PO7,-2.444827993
32347,Sm3GaO6,-3.519042842
32348,Tb3GaO6,-3.598305677
32349,Ho3GaO6,-3.624375763
32350,Zr5GaSn3,-0.655034132
32351,Ga2Ir,-0.442029527
32352,Ga9Ir2,-0.300745174
32353,Ga9Rh2,-0.342631083
32354,HoGaPd,-0.904829197
32355,UGa3Ni,-0.182537828
32356,Li2GaIr,-0.421077724
32357,Ga3Pd7,-0.593934257
32358,Ga5Pd13,-0.559883856
32359,RbGa3,-0.161560489
32360,NdGaO3,-3.069722148
32361,Li2GaPd,-0.548122156
32362,Ga2Te3,-0.18951166
32363,Ga2S3,-1.061079811
32364,LiGa3Te5,-0.452199912
32365,LaGaO3,-3.10991694
32366,NaGaO2,-2.235845821
32367,TaGaO4,-2.87303944
32368,Sr(GaTe2)2,-0.734871497
32369,Zn(GaS2)2,-1.103828347
32370,HfGaNi2,-0.55812311
32371,Ga2NiO4,-1.939036153
32372,NbGaNi2,-0.333005786
32373,Mg(GaO2)2,-2.549823701
32374,Gd3GaO6,-3.522822407
32375,LiGaS2,-1.359839943
32376,Ta4GaSe8,-0.750228322
32377,Li5GaO4,-2.051264496
32378,Li2GaPt,-0.664335964
32379,TlGaTe2,-0.367308514
32380,Li3GaN2,-0.658728775
32381,YbGa,-0.51622247
32382,TlGaS2,-0.970174689
32383,Ga2Pd5,-0.571923951
32384,KGaO2,-2.207533122
32385,Fe3H10S2NO14,-1.61426754
32386,GaPO4,-2.59873963
32387,Nb4GaS8,-1.400628563
32388,Sr3(GaO3)2,-2.833950311
32389,V4GaS8,-1.328282838
32390,PrGaO3,-3.053088152
32391,NaGa4,-0.146126211
32392,Ga2HgSe4,-0.505125113
32393,SmGa2,-0.68472228
32394,Ga2HgS4,-0.921852055
32395,LaGaS3,-1.851456858
32396,Sr(GaO2)2,-2.653911847
32397,LiGa2Rh,-0.55382842
32398,LuGa3,-0.480056049
32399,Sm3(GaNi3)2,-0.493868445
32400,LiGaTe2,-0.627427846
32401,InGaSe3,-0.572707518
32402,PuGa4,0.098678261
32403,HfGa,-0.507259188
32404,Y5Ga3,-0.502985268
32405,Y4Ga12Pt,-0.630396703
32406,SrGaH4,-0.247343895
32407,LiGa2Pd,-0.524559135
32408,Ga41N11O45,-1.835507151
32409,Ga23N5O27,-1.921906518
32410,Ga4GeS4,-0.856380233
32411,Ga6SnTe10,-0.325169077
32412,Sr8Ga16S31,-1.523158936
32413,Y4Ga12Pd,-0.610481345
32414,Fe2P2H9NO11,-1.789907291
32415,Ga2(SO4)3,-2.081556957
32416,K3GaS3,-1.410021233
32417,K3GaSe3,-1.085353253
32418,K3GaTe3,-0.882751421
32419,LiGa2Ir,-0.493436285
32420,GaN5O14,-0.991261601
32421,Sr3GaSb3,-0.873863867
32422,KNa2LiTi2Fe2(SiO3)8,-3.039616332
32423,K2FeH12(SO7)2,-1.750377304
32424,Ti(GaO2)4,-2.565799957
32425,Y3GaO6,-3.576401557
32426,Ga2Pb2S5,-0.998970004
32427,Li5GaO2,-1.344645117
32428,RbGa3S5,-1.23690448
32429,YMgGa,-0.517145761
32430,Nd4Ga2O9,-3.343787938
32431,Ga(IO3)3,-1.088303384
32432,RbGaS2,-1.38309518
32433,Yb(GaS2)2,-1.529578873
32434,Yb3Ga5O12,-2.519283857
32435,Li3Ga7,-0.212898352
32436,Zr3(VGa2)2,-0.457760993
32437,NdGa3,-0.507340828
32438,TiGaRh,-0.169690714
32439,YbGa2Ge3,-0.339935652
32440,Sr11Ga4Sn3,-0.501314639
32441,LiGaI4,-0.754248174
32442,La2GaN3,-1.248030084
32443,K2Ga3,-0.161052045
32444,Tb4Ga12Pt,-0.637412879
32445,Th2Ga,-0.369518003
32446,Na10(Ga2Sn)3,-0.194656837
32447,Yb3(Ga2Ge3)2,-0.447539138
32448,Nd3Ga,-0.23626666
32449,Yb11GaSb9,-0.981775318
32450,Zr2Ga,-0.46617369
32451,TlGaI4,-0.600091474
32452,YbGa5,-0.325205401
32453,NaGa3Se5,-0.736940502
32454,GaI2,-0.47598626
32455,Ho5Ga3,-0.473019531
32456,Ga3Os,-0.266168956
32457,Zn(GaNi)3,-0.376795658
32458,Ga2Os,-0.165455552
32459,GaNi2,-0.32640545
32460,U4Ga12Rh,-0.307541105
32461,Sr3Ga3N5,-0.756281901
32462,Na7Ga13,-0.174934457
32463,Ga2PbSe4,-0.597592421
32464,YGaI,-1.057859553
32465,Tb4Ga12Pd,-0.616113176
32466,TiGa2,-0.438929005
32467,V6Ga5,-0.212872314
32468,HfGaPt,-0.970477381
32469,La3(GaNi2)2,-0.496397388
32470,GdMgGa,-0.487775692
32471,MgGa,-0.104414471
32472,Zn(GaO2)2,-2.189784187
32473,Sm3Ga5O12,-2.949086551
32474,Mn8Zn14Ga27,-0.111185104
32475,Ho4Ga21Ni10,-0.513474144
32476,LiGaO2,-2.390828237
32477,Tb3Ga5O12,-2.986206737
32478,ZrGaPt,-0.978926567
32479,KFe3H6(SO7)2,-0.976002931
32480,NaFe3H6(SO7)2,-1.830216131
32481,La2Ga12Ni,-0.439404633
32482,Mn2Ga5,-0.12457465
32483,Sm2Ga9Ru5,-0.507804549
32484,UGa5Ir,-0.422833929
32485,Pr2Ga,-0.356867038
32486,Ga(HO)3,-1.697112775
32487,Mn3GaN,-0.358514582
32488,Li2GaSb,-0.401675851
32489,Pr3Ga10Ni,-0.557994005
32490,Nd3GaN,0.88353944
32491,PuGa6,0.127589261
32492,Gd2MnGa6,-0.456336689
32493,Ga2I3,-0.431903254
32494,Hf3(MnGa3)2,-0.395256198
32495,LaGaNi,-0.412727232
32496,La2Ga12Pd,-0.469419043
32497,V2GaSn2,-0.121323989
32498,Na17In12Ga29,-0.137374865
32499,U4Ga12Pd,-0.276370968
32500,Sr11In3Ga4,-0.357107176
32501,K2FeH4(SO5)2,-1.969890622
32502,Yb2Ga10Ru3,-0.46166421
32503,LaGa6,-0.378578052
32504,Ga4P4O17,-2.37653907
32505,Tm2Ga10Os3,-0.410535038
32506,Rb5HfFe(MoO4)6,-2.26392504
32507,Mn(GaTe2)2,-0.249433819
32508,Mg(GaS2)2,-1.281187294
32509,PrGa2,-0.69433407
32510,Pr5Ga3,-0.435729196
32511,U3Ga5,-0.072374564
32512,UGa,0.070794651
32513,Ga3Ru,-0.383772997
32514,La5Ga3,-0.462165107
32515,GaGeS4,-0.690942206
32516,InGaSe2,-0.514682341
32517,Ga5(PS)3,-0.700001726
32518,Ga11NO15,-2.119828977
32519,Yb(Ga3Te5)2,-0.481570727
32520,Ga2(Hg4Te5)3,-0.187901748
32521,Sr10Ga6O19,-2.837552159
32522,U4Ga20Ni11,-0.343209569
32523,K3Ga13,-0.159765958
32524,GaSe2,-0.173788822
32525,Sm15(Ga11Ni13)4,-0.275379943
32526,Na8Ga42O67,-2.197843365
32527,Li7(Ga3Te5)8,-0.420000897
32528,Ga6Te10Pb,-0.343017661
32529,Ti24Ga5S48,-1.658806136
32530,Na2FeSn(PO4)3,-2.523716774
32531,Li2TiFe(PO4)3,-2.798879476
32532,Sr7SmFe4(MoO6)4,-2.626130214
32533,Na2TiFe(PO4)3,-2.764231241
32534,Ga2NiS4,-0.906343107
32535,KGaH4,-0.278698979
32536,SrLaFeRuO6,-2.579631068
32537,Sr7PrFe4(MoO6)4,-2.66073586
32538,Sr9NdFe5(MoO6)5,-2.650791096
32539,SrFeSn(PO4)3,-2.701623367
32540,Sr3La7Mn8(FeO15)2,-2.865317242
32541,Li2FeP2HO8,-2.301969592
32542,SrLaMnFeO6,-2.723341819
32543,SrLa9Mg2Ga6(FeO14)2,-3.051908571
32544,LiFePHO5,-2.323592925
32545,MgVFeMo3O14,-2.200153525
32546,NaSr9Fe5(MoO6)5,-2.568150767
32547,Na3Zr3Fe(PO4)6,-2.998953963
32548,Li2ZrFe(PO4)3,-2.672763533
32549,Sr3La7Mn7(FeO10)3,-2.85618171
32550,UTi22Fe18PbO76,-2.730808918
32551,Sr3GaN3,-0.800149984
32552,FeH20S2(NO7)2,-1.429702811
32553,PrMgGa,-0.487005457
32554,Fe3PH6PbSO14,-1.885353672
32555,FePH6NO5,-1.609123431
32556,Sr11LaFe6(MoO6)6,-2.653350262
32557,KFe2P2H5O11,-2.090533945
32558,KFe2H(SeO3)4,-1.541523395
32559,KFe3P8(H11O18)2,-2.018490339
32560,Fe3P8H26NO36,-1.758654191
32561,MnFe2Sb2(PO4)6,-2.42919385
32562,Zn2FeP2(H2O3)4,-1.902207499
32563,Li3Ti3Fe(PO4)6,-2.885970369
32564,SrTiFe(PO4)3,-2.944987211
32565,Fe6H12Pb(SO7)4,-1.786053496
32566,LiFe3SiPO8,-2.386012585
32567,Mg7VFeMo15O56,-2.274843275
32568,NaFe2H3(SO4)2,-1.739811305
32569,Mg21FeSi12(HO16)3,-2.923140583
32570,K2NaNb2Fe7Si8H4O31,-2.591422361
32571,Sr8Mg3Fe(MoO6)4,-2.843569978
32572,NaLi3Ti2Fe2(PO4)6,-2.771670145
32573,NaFeP3H7O13,-2.087251912
32574,RbFeP2(HO4)2,-2.338301704
32575,Sr8Nd2Fe5(MoO6)5,-2.680504082
32576,K3Fe3P4H2O17,-2.42051003
32577,Fe2P2H4NO8,-1.876645923
32578,Li9Mg12Fe(PO4)12,-2.336072315
32579,SrFe3P4HO16,-2.557601681
32580,FeH10S2NO11,-1.004174241
32581,TiGa2O5,-2.669596782
32582,NaGa5O8,-2.161793205
32583,Pr3GaO6,-3.436027227
32584,La3GaO6,-3.540156313
32585,ScGaO3,-3.116825105
32586,Ga3NO3,-1.76254524
32587,TmGaO3,-3.174868619
32588,RbGaO2,-2.066998094
32589,Ga4SiO8,-2.446249806
32590,Ga2HgO4,-1.783579818
32591,LuGaO3,-3.212957313
32592,TlGaO3,-1.632123129
32593,NbGaO4,-2.739756418
32594,Li5Mn2Fe3(PO4)6,-2.52505012
32595,VFe3Sb2(PO4)6,-2.427342836
32596,Mn2Fe3P6WO24,-2.485835583
32597,Li6VFe3(PO4)6,-2.569082453
32598,Li4Mn3Fe3(TeO8)2,-1.95594527
32599,Li4VFe(TeO6)2,-1.977280696
32600,Li6TiFe3(PO4)6,-2.641452818
32601,Li4Fe3Ni3(SbO8)2,-1.739656447
32602,Na2Ga11O17,-2.211064085
32603,LiFeP2HO8,-2.278386462
32604,Ti3V2Fe(PO4)6,-2.86093373
32605,Li4Mn3Nb3(FeO8)2,-2.417120245
32606,Li6Fe3Sb(PO4)6,-2.487369634
32607,Li4V2Fe3Ni3O16,-1.787347244
32608,Li4Ti2Nb3Fe3O16,-2.686269333
32609,Li4Ti3Fe3(TeO8)2,-2.41940159
32610,V3FeSb2(PO4)6,-2.4964915
32611,Li8VFe7(PO4)12,-2.515822511
32612,Li4Nb2V3Fe3O16,-2.474138122
32613,Li4Nb2Fe3Ni3O16,-1.987225358
32614,V2Fe3P6WO24,-2.491082138
32615,Li4Mn3Fe2Ni3O16,-1.655013073
32616,Li2Fe2P4H3O16,-2.278397716
32617,KFeP4(H2O7)2,-2.320975313
32618,V2GaO5,-2.439860432
32619,Li2FeP4(H4O5)4,-1.940327554
32620,Li3Fe4P3H12O19,-1.90867915
32621,Li3Fe2P4HO14,-2.477753048
32622,LiFe2P2HO8,-2.364378115
32623,Li2Zr7Fe(PO4)12,-3.031026028
32624,Li2VFe(P2O7)2,-2.665410595
32625,Li4Fe2Ni3Sb3O16,-1.786192889
32626,Li4Nb3Fe2Ni3O16,-2.148773362
32627,Li4Mn3Fe3(WO8)2,-2.063273932
32628,VFe2Ni3(PO4)6,-2.188481828
32629,Li4Mn3V2Fe3O16,-2.133166596
32630,Li2MnFe(PO4)2,-2.599696719
32631,V2Fe3Te(PO4)6,-2.401252227
32632,Mn2Fe3Ni(PO4)6,-2.303589324
32633,Li10Mn2Fe3Ni3O16,-1.835510437
32634,Li7Sc9Fe(SiO3)20,-3.245505086
32635,Li2VFeP2(HO5)2,-2.422181244
32636,LiVFeP2(HO5)2,-2.321058244
32637,LiVFe(P2O7)2,-2.605666306
32638,Li3VFeP2(HO5)2,-2.405449266
32639,Li4Nb2Fe3Te3O16,-2.029081122
32640,Na5GaO4,-1.829819278
32641,Li4Fe5Ni(PO4)6,-2.410163127
32642,VFeP2(HO5)2,-2.220691383
32643,Li7TiFe3(PO4)6,-2.591822326
32644,Li4MnFe3(PO4)4,-2.575082276
32645,Li4Mn2Fe3Ni3O16,-1.583249717
32646,Li4Nb2Fe3Sb3O16,-2.139910886
32647,Li4FeSb(WO6)2,-2.19489688
32648,Li2MnFe2(PO4)3,-2.488998594
32649,Li4Mn3Fe(PO4)4,-2.624612385
32650,Li4FeNi3(PO4)4,-2.354950529
32651,Li4V3Fe3(TeO8)2,-2.095911367
32652,Li4Ti2Fe3Ni3O16,-1.944384757
32653,Li4FeNi5(PO4)6,-2.181150413
32654,Li4Fe2TeWO12,-1.907562039
32655,Li4TiMn4(Fe2O9)2,-1.996984663
32656,Li4Ti4Mn(Fe2O9)2,-2.555264675
32657,Li4Ti2Mn3(Fe2O9)2,-2.243725576
32658,Li4Ti4V(Fe2O9)2,-2.620218538
32659,TiV2Fe3(PO4)6,-2.605496964
32660,Li4Mn3Fe3(NiO8)2,-1.738842007
32661,Li4Mn2Nb3Fe3O16,-2.343614308
32662,Li2FeNi(PO4)2,-2.419899452
32663,VGaO3,-2.315433651
32664,Li4Ti3Mn2Fe3O16,-2.501389642
32665,Li4Ti3Mn3(FeO8)2,-2.525133349
32666,VGa2O5,-2.315942988
32667,Ga2WO6,-2.197077393
32668,Li4Nb2Fe3Sn3O16,-2.32672513
32669,Li4Mn2Fe3P6WO24,-2.477269721
32670,Li4Mn3Nb2Fe3O16,-2.334778835
32671,Li4Ti3V2(Fe2O9)2,-2.521259597
32672,Fe2Ni3P6WO24,-2.194447079
32673,Li6MnFe3(PO4)6,-2.527577528
32674,Li4Fe3Ni(PO4)4,-2.484824907
32675,Li6Fe3Ni(PO4)6,-2.448029197
32676,Mn3Fe2P6WO24,-2.419404907
32677,Mn3FeNi2(PO4)6,-2.260525225
32678,Li4FeTe(WO6)2,-2.088187388
32679,Li2ZnFe(PO4)2,-2.53173466
32680,Li2ScFe(SiO3)4,-3.085433021
32681,Sr4Li4Nb5FeO20,-3.013557674
32682,Ga2(WO4)3,-2.120655216
32683,Li2FeSn(PO4)2,-2.451373955
32684,Li4Fe3Ni3(TeO8)2,-1.703948017
32685,Na2Ti3Fe(PO4)6,-2.855906291
32686,Li10Ti2Fe3Ni3O16,-2.10997166
32687,Li4Mn3Fe3(SbO8)2,-2.080720816
32688,Li4Nb3Fe3(NiO8)2,-2.226519599
32689,Li4Fe3Sn3(TeO8)2,-1.961824381
32690,Li8Fe3Sn(PO4)6,-2.52480998
32691,Li5Sc2Fe3(SiO3)10,-3.032173929
32692,Li4FeTe2WO12,-1.949167389
32693,Li8Sc5Fe3(SiO3)16,-3.153157685
32694,Li7Fe3Ni(PO4)6,-2.496140097
32695,Li12Mn11Fe(PO4)12,-2.641526347
32696,Li8ScFe7(SiO3)16,-2.885790088
32697,Na9LiFe10(SiO3)20,-2.795842276
32698,Li4Fe2Ni3Sn3O16,-1.692498213
32699,Li4Ti2Mn4(FeO6)3,-2.243182872
32700,Li4V3Fe3(SbO8)2,-2.215404057
32701,Li4Mn3Fe2Sb3O16,-2.035449738
32702,NaLi7Fe8(SiO3)16,-2.81463486
32703,Li4Ti3Mn4(FeO9)2,-2.431903846
32704,V3Fe2Sb(PO4)6,-2.516765485
32705,Li4Fe5P6WO24,-2.435934313
32706,Li4Fe3Ni2Sn3O16,-1.768680916
32707,V3Fe2Ni(PO4)6,-2.489461653
32708,Li4Fe3Ni3(SnO8)2,-1.660307374
32709,Li4Ti2Fe3Sn3O16,-2.376283331
32710,Mn2Fe3Sb(PO4)6,-2.450224469
32711,Li5Fe3Sb2(PO4)6,-2.431720301
32712,TiFe3Ni2(PO4)6,-2.41331498
32713,Ti3Fe2Ni(PO4)6,-2.763077023
32714,Mn2NbFe3(PO4)6,-2.578363104
32715,Fe3Ni2Sn(PO4)6,-2.286528959
32716,TiMn2Fe3(PO4)6,-2.571720473
32717,Li4Ti3Nb2Fe3O16,-2.794790339
32718,Li2Mn2Fe(PO4)3,-2.494222229
32719,Li8NbFe7(PO4)12,-2.559558589
32720,Li4Ti2V3Fe3O16,-2.527531187
32721,Li8Mn7Fe(PO4)12,-2.48340669