id,Composition,FormationEnergy
25667,In7Cu10,-0.011067646
25668,Y5Mg8Cu5,-0.183033719
25669,La2Cu2O5,-2.52313035
25670,Cu(NO3)2,-0.89567267
25671,Cu9Se8,-0.122606473
25672,Cu9Se5,-0.042988272
25673,In5CuS8,-0.902697313
25674,Si2CuP3,-0.085803471
25675,Y4CuTe8,-1.098577589
25676,In8Cu7Se16,-0.376213532
25677,Cu11S16,-0.309037856
25678,Tm2CuO4,-2.951841528
25679,Ga7(CuSe4)3,-0.504171659
25680,CsTiZnOF5,-3.229498437
25681,Tb7(CuTe4)3,-1.146606233
25682,Li49Cu8N19,-0.424594485
25683,Cu7PSe6,-0.059417075
25684,ScCuSe2,-1.112136362
25685,CsTiCuOF5,-2.946620647
25686,In11Cu9Se20,-0.416660479
25687,Cu3P15I2,-0.091144152
25688,CsSbTe6(OF5)6,-2.312763991
25689,La8Cu7O19,-2.617183574
25690,Yb5Cu11Sn8,-0.363147094
25691,In4Cu9,0.007959117
25692,Cu17Se10,-0.020525975
25693,Cu27Se20,-0.069139398
25694,Cu13I15,-0.128523395
25695,CsTiNb(O2F)2,-3.275842557
25696,Cu18S11,-0.331234901
25697,Cu25Se26,-0.123117927
25698,Cu11S20,-0.266588359
25699,Cu19Se11,-0.008907377
25700,Cu9S16,0.033958176
25701,Cu14I19,-0.064715352
25702,Cu39S20,-0.211881984
25703,Cu16I19,-0.124488928
25704,Cu29Se19,-0.037840146
25705,Cu4Sn15S32,-0.718722563
25706,Ga2CuO4,-1.831236406
25707,Ti3CuS6,-1.582926924
25708,Cu23(Sb4S13)2,-0.513722257
25709,Ta22(CuS12)3,-1.382448789
25710,Cs4MgZr3(PO4)6,-3.091821242
25711,Nb24(CuS8)5,-1.377813824
25712,V6Cu5Te12,0.080394656
25713,Sc(SiCu)2,-0.49702704
25714,Cs2SiP4(HO7)2,-2.601846504
25715,CsCuP3H8O13,-1.939725236
25716,Cs2Zr2ZnH12(OF2)6,-2.384861306
25717,CsZn2P2HO8,-2.398717049
25718,CsMnMo(OF)3,-2.523106281
25719,CsLiH4S2(NO3)2,-1.595484906
25720,CsTiH24(SO10)2,-1.642788004
25721,CsKMo4(P3O13)2,-2.518517821
25722,Cs2TiV3(PO6)3,-2.708543842
25723,CsTiMnOF5,-3.35362609
25724,Mn9(Cu3O10)2,-1.594940998
25725,Cs4Zr3Mn(PO4)6,-3.032674701
25726,CsH24Rh(SO10)2,-1.5319264
25727,CsH24Ru(SO10)2,-1.525900071
25728,Cs2Na4Si12Cu2H4O31,-2.734146227
25729,YCu,-0.23550464
25730,CsKNaLi13(SiO4)4,-2.553494524
25731,Cs3Mg3In(PO3)12,-2.768643668
25732,Hf3Cu8,-0.165736068
25733,CsGaH24(SO10)2,-1.598592455
25734,Ti2Cu,-0.117726154
25735,NaCuSe,-0.598107003
25736,NaCuTe,-0.479256632
25737,KCuTe,-0.595858455
25738,CsVZn(PO3)6,-1.966567203
25739,K3Cu3P2,-0.334926803
25740,CsVH24(SO10)2,-1.618603707
25741,CsMnH24(SO10)2,-1.578056153
25742,CsFeH24(SeO10)2,-1.421574612
25743,CsFeH24(SO10)2,-1.57963625
25744,LiCu2F5,-2.120701811
25745,Li2CuS2,-1.06253347
25746,LiCuS,-0.915611655
25747,Li2Cu4S3,-0.676833155
25748,Li3CuS2,-1.190913508
25749,Cu4OF6,-1.580284133
25750,LiCuS2,-0.847628565
25751,Tm(CuO2)2,-2.106490948
25752,Na4CuO3,-1.387115328
25753,NaCuO2,-1.275578087
25754,Cu3(TeO5)2,-1.093304701
25755,Cu2O3,-0.795126577
25756,CsLiH4SO5,-1.811543776
25757,Cu(TeO3)4,-1.259681692
25758,Li6CuS4,-1.299707149
25759,Mg2Cu5O7,-1.484342984
25760,Mg7Cu17O24,-1.505741206
25761,La16Cu8O31,-2.978808715
25762,Li2Cu3F8,-2.133411194
25763,Mg4Cu11O15,-1.441258285
25764,TiCu3O4,-1.727496727
25765,LiCuF4,-2.147816958
25766,In3Cu3O8,-1.48853472
25767,Li6Cu5F14,-2.327412419
25768,Cu3(OF)2,-1.272177973
25769,Cu2OF2,-1.402701494
25770,Li3Cu4F15,-2.056392613
25771,CsMgP(H6O5)2,-1.825561048
25772,LiCuF3,-2.329317321
25773,Cu2Ni11O13,-0.885870025
25774,Li2CuF5,-2.410697875
25775,CsMnH4(OF2)2,-2.181020639
25776,V6CuO15,-2.212225828
25777,Fe13Cu5O24,-1.56886236
25778,Li(CuO)3,-1.123763142
25779,Li7(Cu6S5)2,-0.79277664
25780,Li10Cu4S9,-1.10482569
25781,Ti16CuS32,-1.675483636
25782,CsPH4(NO)2,-1.341603445
25783,Fe2CuO4,-1.548571392
25784,CuPO3,-1.936913947
25785,CuHgO2,-0.742960798
25786,CsH5S2(NO3)2,-1.472511156
25787,V8CuO20,-2.227530022
25788,V12Cu2O29,-2.236404085
25789,Li3CuS3,-1.114158237
25790,Li2Cu2S3,-0.88969177
25791,V5CuO12,-2.222719415
25792,Na8Cu2O7,-1.358484012
25793,Na9Cu2O7,-1.369567302
25794,Cu(PO3)3,-2.170262161
25795,Cs2ZnH12(SeO7)2,-1.498643332
25796,Cs2ZnH12(SO7)2,-1.744566301
25797,Cs2MgH12(SeO7)2,-1.602192173
25798,Sr(SiCu)2,-0.354933076
25799,Zr3(SiCu2)2,-0.528629028
25800,PrSiCu,-0.600376187
25801,NdSiCu,-0.616769792
25802,TmSiCu,-0.663404873
25803,YbSiCu,-0.449695505
25804,YSiCu,-0.679714715
25805,Zr(CuP)2,-0.662072475
25806,K2CuP,-0.335687571
25807,Cu6OF11,-1.709339399
25808,La20Cu9O40,-3.033577841
25809,CsK2Sc(PO4)2,-2.967771971
25810,Na(Cu2Sb)2,-0.097586541
25811,Pr2CuIr,-0.369716608
25812,Pr2CuRu,-0.125035766
25813,LiGaCu2,-0.200418379
25814,PaGaCu2,-0.129725644
25815,La2CuRu,-0.174986408
25816,Sc2CuRu,-0.470050354
25817,Sc2GaCu,-0.459358816
25818,Sc2TcCu,-0.254423069
25819,GaCuRh2,-0.378072931
25820,La2CuIr,-0.435584459
25821,LiCuPd2,-0.298110337
25822,LiCu3,-0.030686935
25823,GaCuPt2,-0.431789146
25824,Cs2KU2(Si2O7)2,-3.256516136
25825,PaInCu2,-0.077339475
25826,PmCu2Sn,-0.357445654
25827,PmGaCu2,-0.289096688
25828,PmInCu2,-0.308204244
25829,Er2CuPt,-0.796643765
25830,Er2CuRu,-0.382659831
25831,CsVGa(PO5)2,-2.392259215
25832,LiCu2F6,-2.090357634
25833,Li2Cu2F7,-2.237194681
25834,Pm2CuGe,-0.467679565
25835,Pm2CuIr,-0.445269796
25836,Pm2CuOs,-0.111472528
25837,Pm2CuPt,-0.644827186
25838,Pm2CuRh,-0.439172376
25839,Pm2CuRu,-0.196111455
25840,Pm2CuSn,-0.419527584
25841,PmCu3,-0.125603183
25842,V18Cu20O57,-1.795962461
25843,ZnCuPd2,-0.404843778
25844,PaCu2Sn,-0.126904395
25845,Nd3(CuSn)4,-0.530329099
25846,Nd2CuIr,-0.413532313
25847,Nd2CuRu,-0.161454456
25848,Zr2CuOs,-0.342573281
25849,Hf2CuIr,-0.570872608
25850,MnCuPd2,-0.223682963
25851,Dy2CuOs,-0.266146221
25852,Dy2CuRh,-0.572244862
25853,Dy2CuIr,-0.59769357
25854,Hf2CuOs,-0.424690354
25855,HfCu3,-0.082395289
25856,Dy2CuRu,-0.344897489
25857,Tm2CuOs,-0.330574091
25858,Tm2CuIr,-0.65698381
25859,Tm2CuPt,-0.813544858
25860,Tm2CuRu,-0.402905704
25861,Lu2TcCu,-0.177692934
25862,Pm2SiCu,-0.377603886
25863,Y2CuRh,-0.551039643
25864,Y2CuRu,-0.315938371
25865,Y2CuIr,-0.57210665
25866,Lu2CuRu,-0.434129784
25867,Li5(Cu2P3)2,-0.451934674
25868,GaCu3,-0.09876596
25869,LuGaCu2,-0.350966549
25870,Lu2CuIr,-0.687754965
25871,Lu2CuOs,-0.357867774
25872,Yb2CuIr,-0.421948943
25873,Lu2CuPt,-0.837326518
25874,Yb2CuRh,-0.466045173
25875,TiZnCu2,-0.160220059
25876,HfZnCu2,-0.196310286
25877,Er2CuOs,-0.307140571
25878,Cs2MgP4(HO2)8,-2.274922516
25879,Sc2CuPt,-0.80218836
25880,Ho2CuRu,-0.363279489
25881,Ho2CuRh,-0.58777998
25882,InCuPd2,-0.394722365
25883,SiCu3,-0.055112816
25884,Li2Cu3F9,-2.147288647
25885,Tl(CuS)2,-0.520511456
25886,Y6Cu11O24,-2.071308507
25887,CuSbRh2,-0.281198052
25888,TaCuRh2,-0.447486958
25889,Sc2CuIr,-0.691369977
25890,Sc2CuOs,-0.409169281
25891,Sm2CuIr,-0.470053513
25892,Sm2CuRu,-0.229382884
25893,ScZnCu2,-0.246060957
25894,CuGeRh2,-0.377890216
25895,Fe9Cu3O16,-1.279620617
25896,TlCu3Se2,-0.190673423
25897,Sr2Cu2O3,-1.548447225
25898,RbCuF3,-2.355835128
25899,TaCuN2,-0.731172046
25900,LiCuO2,-1.456135266
25901,SiCu2S3,-0.77301294
25902,CuP2,-0.116654911
25903,TaCu3Te4,-0.264658201
25904,TbCuGe,-0.691437166
25905,HoCuGe,-0.686636548
25906,ErCuGe,-0.682980493
25907,La(CuO2)2,-2.054332421
25908,Sm(CuO2)2,-2.05576227
25909,Eu(CuO2)2,-1.811610196
25910,Dy(CuO2)2,-2.089051771
25911,Ho(CuO2)2,-2.096730334
25912,YCuTe2,-0.89946998
25913,DyCuTe2,-0.888223011
25914,Th(CuP)2,-0.775812881
25915,Cu2GeO4,-1.360258686
25916,ZnCuNi2,-0.114722527
25917,ZnCuPt2,-0.365984402
25918,Zn2CuPt,-0.34062125
25919,Tm2ZnCu,-0.305924475
25920,Zn3Cu,-0.064864425
25921,Ti2TcCu,-0.308206767
25922,MgCu,-0.095101485
25923,ScCuO3,-1.848377691
25924,ScCu3,-0.16774956
25925,ScCuPd2,-0.647703335
25926,Lu2ZnCu,-0.316235807
25927,Ho2TcCu,-0.117005049
25928,Lu2CuRh,-0.649777005
25929,Lu2GaCu,-0.440459699
25930,In3Cu,0.157307461
25931,MnCu3,0.097257678
25932,RbCuO3,-0.674316665
25933,InCuO3,-0.927263287
25934,Pr3(CuSn)4,-0.524893171
25935,Pr3Cu,0.1570016
25936,Li3Cu,0.01342274
25937,NaCu,0.386594693
25938,HoTmCu2,-0.270353156
25939,Hf2ReCu,-0.292452594
25940,Tm2TcCu,-0.155524184
25941,PrCuGe2,-0.588145208
25942,Mg3Cu,-0.015985871
25943,Sc2ZnCu,-0.314285667
25944,SiCuRh2,-0.535885793
25945,Tm2CuPd,-0.614739522
25946,V3Cu,0.154733845
25947,YLuCu2,-0.268558737
25948,VCuRh2,-0.27600859
25949,YDyCu2,-0.243868365
25950,YHoCu2,-0.246588795
25951,Th(CuSn)2,-0.343875534
25952,Zn2CuIr,-0.148485505
25953,ZrCu2Hg,-0.117714193
25954,Cu3SbSe4,-0.183184401
25955,YTmCu2,-0.258529279
25956,NaCu3,0.320361819
25957,Ho2CuPd,-0.590036067
25958,PmDyCu2,-0.202274534
25959,Er2ZnCu,-0.298842617
25960,CuSeO4,-1.000837089
25961,Ga3Cu,0.060620156
25962,TmCu,-0.283292763
25963,ZnCu,-0.07691135
25964,VCu3Te4,-0.242655181
25965,NbCu3Te4,-0.287705556
25966,CsSrSiHO4,-2.706927722
25967,CuHO2,-1.026372908
25968,CuPtO2,-0.824824698
25969,TlCuO2,-0.940444211
25970,CuPdO2,-0.876866958
25971,MgCuO2,-1.967595442
25972,CuO2F,-1.153094963
25973,VCuO2,-1.743531347
25974,Cu3OF5,-1.623061541
25975,Mn2CuSb,0.276226502
25976,CuTeO4,-1.056029822
25977,CuSbO4,-1.151617895
25978,TaCuO4,-2.091109246
25979,CuMoO4,-1.579075296
25980,CuWO4,-1.584229375
25981,Ti4(CuO4)3,-2.484456797
25982,YCuO3,-2.230891715
25983,V4(CuO4)3,-1.868400619
25984,Y2(CuS2)3,-1.207664439
25985,Mn4(CuO4)3,-1.416228514
25986,VCuO4,-1.569780801
25987,Y4(Cu2O5)3,-1.907350747
25988,Y2(CuO2)3,-2.00310843
25989,EuCuO3,-1.96634743
25990,ZnCuO2,-1.18693822
25991,Cu3(SnO3)4,-1.606220016
25992,Cu2SnSe4,-0.185593155
25993,Cu2GeSe4,-0.166217364
25994,Cu2GeS4,-0.576200139
25995,Cu3(GeO3)4,-1.559946927
25996,MgCuF5,-2.538144677
25997,ZnCuF4,-2.135665162
25998,Y(CuS2)3,-0.791591233
25999,YCuF5,-3.163162896
26000,Y(CuO2)3,-1.016859268
26001,Zn(CuN)2,0.502868689
26002,Zn2CuN2,0.132963882
26003,YCuO2,-2.730573168
26004,Y(CuO2)2,-2.075293682
26005,YCu7O12,-1.265497436
26006,Mg2Cu9O13,-1.174509741
26007,Zn2Cu9O13,-0.948742534
26008,Cu9O13,-0.677566853
26009,Mg(CuN)2,0.213210344
26010,Mg2CuN2,-0.451659081
26011,Cu5O7,-0.693083559
26012,MgCuF4,-2.743166255
26013,Mg(Cu2O3)2,-1.209987777
26014,ZnCuF5,-2.025755343
26015,Zn(Cu2O3)2,-0.964118928
26016,Mg2Cu2O5,-1.624346476
26017,Zn2Cu2O5,-1.021715726
26018,Mg(CuO2)2,-1.419375062
26019,Zn(CuO2)2,-1.085880711
26020,CuTe2O7,-1.024028001
26021,CuMo2O7,-1.715817333
26022,CuW2O7,-1.693154713
26023,Cu3(SbO3)4,-1.541206744
26024,Cu3(WO3)4,-1.671331811
26025,Cu3(MoO3)4,-1.725274733
26026,Fe4(CuO4)3,-1.251442768
26027,Cu3(NiO3)4,-0.630187097
26028,KV(CuSe2)2,-0.699920966
26029,Dy(CuS)2,-1.069980406
26030,Y(CuS)2,-1.068362676
26031,Cu2WSe4,-0.147396419
26032,Mg2SiCu3,-0.239030248
26033,TaCu3S4,-0.95283082
26034,K3Cu5O4,-1.106537619
26035,K2Ga3CuSe6,-0.810063974
26036,RbCu3S2,-0.677765378
26037,GaCuO2,-1.686345712
26038,KCuPdSe5,-0.427223472
26039,RbCuPdSe5,-0.432358667
26040,SrSi4Cu9,-0.219229625
26041,Na5CuSO2,-1.355018069
26042,KY2CuS4,-1.996895921
26043,KNd2CuS4,-1.964981046
26044,KSm2CuS4,-1.980741681
26045,Tb2KCuS4,-1.999825687
26046,KHo2CuS4,-1.996195695
26047,Cu2SnSe3,-0.281038581
26048,LaCuSe2,-1.340329989
26049,PrCuSe2,-1.243163789
26050,SmCuSe2,-1.235888196
26051,UCuGe,-0.09055798
26052,Rb2TaCuSe4,-0.97543993
26053,RbTa(CuSe2)2,-0.756398456
26054,Li2CuP,-0.56652251
26055,SrCuF4,-3.060956982
26056,KThCuS3,-1.810718009
26057,HoCuS2,-1.708970455
26058,ErCuS2,-1.707699967
26059,Cu2GeTe3,-0.094954159
26060,Na3Cu2SbO6,-1.62702346
26061,TbCuSe2,-1.223023338
26062,Cu2SnTe3,-0.138339025
26063,LuCuSn,-0.559947517
26064,YCuSn,-0.614567818
26065,YbMg2Cu9,-0.190148257
26066,YbCuGe,-0.383061415
26067,EuCuTeF,-1.959653612
26068,KUCuS3,-1.540421008
26069,Sm(CuGe)2,-0.529223274
26070,Yb(CuGe)2,-0.45216048
26071,PrCuO2,-2.597021428
26072,SmCuO2,-2.668582511
26073,EuCuO2,-2.288394922
26074,TlCu3S2,-0.436083144
26075,Sr(CuO)2,-1.672210527
26076,Zr2CuS4,-1.690158653
26077,TlCuS2,-0.557485915
26078,TlCuSe2,-0.236441024
26079,CuRhO2,-0.974599126
26080,Rb2Si8Cu2O19,-2.876895639
26081,K2VCuS4,-1.356961315
26082,Er(CuO2)2,-2.100473506
26083,K2VCuSe4,-0.903552221
26084,Cu2GeS3,-0.654719975
26085,Lu2Cu2O5,-2.670185817
26086,Sc2Cu2O5,-2.569130997
26087,KGd2CuS4,-1.997027861
26088,SiCu2Se3,-0.283021866
26089,Zr3(Cu2Ge)2,-0.485392899
26090,Li2CuSb,-0.423814348
26091,RbSm2CuSe4,-1.50880206
26092,RbDy2CuSe4,-1.502707984
26093,KHo2CuSe4,-1.506199638
26094,ZnCu2SnSe4,-0.390243344
26095,Cu2SnHgSe4,-0.274035707
26096,PrCuS2,-1.709150215
26097,HoCuPb,-0.385582517
26098,ErCuPb,-0.37437942
26099,LuCuPb,-0.334304202
26100,Cu(PO3)2,-2.243316171
26101,NbCuO3,-2.312244441
26102,Cu2PO4,-1.751279112
26103,Gd2Cu(SeO3)4,-2.000210925
26104,Ho3SiCuS7,-1.902186473
26105,Cu2Te3O8,-1.297998491
26106,Cu3SbS3,-0.480705296
26107,Y3CuSnS7,-1.802556312
26108,Hf2CuGe4,-0.439653446
26109,Na2Si4CuO10,-2.79644337
26110,Li(CuO)2,-1.234880363
26111,La2Cu(SeO3)4,-2.054460873
26112,Zr2CuGe4,-0.537683082
26113,Nd3CuSnSe7,-1.311517644
26114,RbCuSe4,-0.411951399
26115,MnCu2SnS4,-0.740396526
26116,La2CuO4,-2.989512423
26117,YCuSb2,-0.616191105
26118,Li3CuO3,-1.78883547
26119,DyCuGe,-0.689719843
26120,LaCuSn,-0.600850779
26121,LaCuO2,-2.70563739
26122,MnCuP,-0.157512691
26123,Yb2Cu2O5,-2.248287622
26124,TbCuPb,-0.404418237
26125,La(CuGe)2,-0.561422847
26126,UCuPO,-1.78876109
26127,Ta2InCuTe4,0.313824988
26128,CuSO4,-1.629659942
26129,SmCuPb,-0.4100624
26130,Pu(SiCu)2,-0.410497951
26131,YCuPb,-0.408536003
26132,CuTeO3,-1.222201175
26133,K3Cu2F7,-2.475681412
26134,Nd2Cu2O5,-2.466945288
26135,Sr2Cu2O5,-1.952472265
26136,Fe2CuGe2,-0.080778318
26137,Er2Cu2O5,-2.633434727
26138,CuGeO3,-1.608869035
26139,EuCuSF,-2.296984913
26140,EuCuSeF,-2.090660421
26141,U(CuGe)2,-0.177294181
26142,La2InCuSe5,-1.323369695
26143,LiLa4CuO8,-3.184050543
26144,Na2ScCuF7,-3.161912102
26145,Na2GaCuF7,-2.697295324
26146,SrCuN,-0.564995822
26147,Na2InCuF7,-2.649731126
26148,Mg6Si7Cu16,-0.182990033
26149,K2In3CuSe6,-0.7613427
26150,Cu3TeO6,-1.110091277
26151,TlCu7S4,-0.386179846
26152,Cu6PbO8,-0.794343347
26153,Dy3(CuGe)4,-0.634384501
26154,Dy(CuGe)2,-0.500267504
26155,DyCuPb,-0.396193307
26156,MnCu2Sn,0.08770012
26157,NaCu3(RuO3)4,-1.341067836
26158,MnCu2SnSe4,-0.327062019
26159,CuSeO3,-1.072848272
26160,Ti4Cu2O,-0.976002699
26161,InFe2CuSe4,-0.202608424
26162,FeCu2SnSe4,-0.249919443
26163,FeCu2SnS4,-0.664810145
26164,NdCu3(RuO3)4,-1.564168359
26165,LiCu2P,-0.282536961
26166,SiCu(HO2)2,-1.927629976
26167,CuH4(OF)2,-1.533768201
26168,CuHOF,-1.458320779
26169,Si4Cu5O14,-2.028271551
26170,Li4(CuO2)3,-1.523823336
26171,Li3(CuO2)2,-1.569346631
26172,Li(CuO2)2,-1.097930254
26173,CuPO4,-1.815208086
26174,Cu9(PO4)8,-1.880753141
26175,Cu2P3O10,-2.064659268
26176,Cu4(PO4)3,-1.865325215
26177,Cu5P3O13,-1.790082777
26178,MgCu2O3,-1.599977704
26179,Na3(CuS)4,-0.867043073
26180,Nb3CuO8,-2.711628279
26181,CuTe2O5,-1.325422175
26182,Cu5(PO5)2,-1.661267374
26183,KCu4S3,-0.658574979
26184,UCuO4,-2.682255035
26185,Tl(CuO)2,-0.834512037
26186,KCuS,-0.986679854
26187,K3CuO2,-1.310770404
26188,NaCu5S3,-0.387065646
26189,U6Cu2S13,-1.650958077
26190,Cu2SO4,-1.375893276
26191,Na3CuO3,-1.462211914
26192,Rb3CuO2,-1.253416323
26193,Tl5(Cu7Se5)2,-0.201076624
26194,Na4Cu2S3,-1.045244462
26195,Na7(Cu6S5)2,-0.785759905
26196,Y2Cu2O5,-2.584442071
26197,SrCuO3,-1.717712089
26198,Na(CuS)4,-0.67089123
26199,Ti(CuS)4,-0.905313751
26200,Sr6Cu3N5,-0.623954527
26201,NaCu3F7,-2.050353996
26202,Cu2PbO2,-0.991974071
26203,ErCuP2,-0.877441838
26204,YCuP2,-0.871205179
26205,Li2CuSn,-0.324298635
26206,SrCuSn2,-0.41951575
26207,TaCuS3,-1.169353049
26208,La2CuS4,-2.025895354
26209,NbCuTe2,-0.317063488
26210,Nd(CuGe)2,-0.535999067
26211,Tb3(SiCu)4,-0.636388698
26212,Na2CuF4,-2.512818216
26213,Sr(CuGe)2,-0.372112946
26214,SrCu2O3,-1.694415134
26215,Fe5CuO8,-1.69596324
26216,Mn3Cu3O8,-1.504415968
26217,Cu4SnP10,-0.129052269
26218,Tb(SiCu)2,-0.601004357
26219,LaCuO3,-2.440260704
26220,FeCuS2,-0.598626496
26221,Pr5CuSe8,-1.6374571
26222,Eu(CuGe)2,-0.428764489
26223,Li2CuGe,-0.315584646
26224,Nd5CuSe8,-1.636021035
26225,ScCuO2,-2.737268228
26226,HfCu2Te3,-0.472962644
26227,Ho3(CuGe)4,-0.628581515
26228,NdCuSe2,-1.241763737
26229,VCu3S4,-0.94091372
26230,Sm5CuSe8,-1.629630948
26231,Tb3(CuGe)4,-0.635814421
26232,ErInCu,-0.419675727
26233,Ti2CuS4,-1.533052025
26234,KCuO2,-1.388226858
26235,Sm(SiCu)2,-0.600552202
26236,NbCu3Se4,-0.515192266
26237,Cu3(PO4)2,-1.879532998
26238,Sm2CuO4,-3.036323602
26239,Er(SiCu)2,-0.57835279
26240,Nd(CuO2)2,-2.03246693
26241,Cu2SO5,-1.449583664
26242,Cu(RhO2)2,-1.066164494
26243,CuSbS2,-0.579231391
26244,Y(CuGe)2,-0.503489672
26245,Tb(CuGe)2,-0.510227995
26246,Ho(CuGe)2,-0.486366706
26247,ErInCu2,-0.32799675
26248,Nb2CuO6,-2.536430991
26249,Li2CuO2,-1.665659787
26250,Cu2GeSe3,-0.244856043
26251,LaCuS2,-1.804859444
26252,Gd2CuO4,-3.037814071
26253,NdCuO2,-2.622732572
26254,Th(CuGe)2,-0.481643184
26255,Pr(CuGe)2,-0.536149148
26256,LuInCu2,-0.318811615
26257,Tl(CuSe)2,-0.249063405
26258,Ho2Cu2O5,-2.620896442
26259,Cu4SnS4,-0.539785595
26260,Mn3(CuO4)2,-1.52234154
26261,VCuO3,-1.81209013
26262,Fe9Cu9S16,-0.589659181
26263,La3SiCuS7,-2.042638435
26264,V2Cu3O8,-1.667331768
26265,NdCu(WO4)2,-2.363670912
26266,LaCu(WO4)2,-2.397107711
26267,Na(CuO)2,-1.131312233
26268,Cu(HO)2,-1.1082567
26269,FeCuO2,-1.448480169
26270,NaTiCuS3,-1.387070165
26271,NaZrCuTe3,-0.730254825
26272,FeCuSe2,-0.135774042
26273,GdCuSeO,-2.128542052
26274,Nd3(CuGe)4,-0.601340832
26275,MnCu(Te2O5)2,-1.519995225
26276,KCuPO4,-2.213077557
26277,CuP4O11,-2.344533635
26278,NaHfCuSe3,-1.058307336
26279,V6Cu11O26,-1.586512835
26280,V2Cu2O7,-1.80993663
26281,Sr(CuSb)2,-0.439264545
26282,SmCuS2,-1.715842701
26283,Er(CuGe)2,-0.473263524
26284,Si2Cu5S7,-0.766617133
26285,MnVCuO4,-1.942598286
26286,Dy3CuSnSe7,-1.26430993
26287,La3CuSnS7,-1.934122585
26288,EuCuSeO,-1.784563944
26289,VCu3O4,-1.330004809
26290,Li3Cu2(WO4)4,-1.973375312
26291,V2CuS4,-1.140135134
26292,GaCuS2,-0.911592933
26293,Fe3(CuS5)2,-0.741714944
26294,Lu(SiCu)2,-0.54573384
26295,Fe4Cu2S7,-0.573371239
26296,Sr2CuF6,-3.420260207
26297,YbCu(WO4)2,-2.279285766
26298,Cu4Se3O10,-1.085802207
26299,TlCuPO4,-1.929162926
26300,KTa3CuO9,-2.924558124
26301,GdCu(WO4)2,-2.358954491
26302,NdCuSO,-2.311207696
26303,CuHgSI,-0.373671378
26304,EuDyCuS3,-2.010576256
26305,Er3(SiCu)4,-0.638721765
26306,NbCuO3F,-2.405552732
26307,Sr2CuO3,-2.450048152
26308,Tl2Cu(SO3)2,-1.513470985
26309,V2CuO6,-1.987497072
26310,Na2Cu2TeO6,-1.501495917
26311,TbSiCu,-0.670601266
26312,Sr2Cu3O5,-1.850122477
26313,LaCuSeO,-2.208089602
26314,DyCuS2,-1.709638598
26315,K2CuP2O7,-2.420335815
26316,Nd5Cu5O13,-2.449642277
26317,K2CuSbS3,-1.037774127
26318,NaCu(IO3)3,-1.020707133
26319,CuSb2(XeF5)4,-1.762727716
26320,Cu8GeS6,-0.434351699
26321,Cu(SbO3)2,-1.653356909
26322,CuP4S3I,-0.403275185
26323,Tb3CuSnS7,-1.813460559
26324,TlCuF3,-1.910777792
26325,Ta2Tl3Cu3S8,-0.995433742
26326,KGaCuF6,-2.647954124
26327,K2Th(CuS2)2,-1.525357048
26328,Na2CuSbS3,-0.97277187
26329,Pr3SiCuS7,-1.942737728
26330,EuCu2SnS4,-1.089065098
26331,K2Cu3(SeO3)4,-1.338295771
26332,Na8(CuO2)5,-1.387081574
26333,Gd3CuSnS7,-1.816132568
26334,Nd3SiCuS7,-1.940967122
26335,Na2Si3CuO8,-2.70896728
26336,K2UCu3S5,-1.262926954
26337,Tl4Cu4(P2O7)3,-2.069408534
26338,Si2Cu4NiS7,-0.755735942
26339,Cu2WS4,-0.837538228
26340,Rb4Si2CuO7,-2.411158861
26341,Tl(Cu3S2)2,-0.416962864
26342,Zn4Cu5(TeO6)3,-1.356499575
26343,Sm3CuSnS7,-1.82354678
26344,In2Si(CuS3)2,-0.848192895
26345,K3CuP2S7,-1.112264178
26346,K2Si4CuO10,-2.828703844
26347,NaZr2CuF11,-3.486032785
26348,Cu3P4(SI)3,-0.351337706
26349,KCu4(PO4)3,-1.988104668
26350,Na2Si4Cu2O11,-2.580449901
26351,V2(CuO2)5,-1.48303031
26352,K2Cu(PS3)3,-0.943063912
26353,K6U2(Cu4S5)3,-1.122166704
26354,Na3(CuO2)2,-1.392745417
26355,CuSb2(XeF4)6,-1.586542274
26356,Nd3CuSnS7,-1.829970182
26357,DyCu(MoO4)2,-2.350023957
26358,Na2FeCuF7,-2.629251898
26359,Cu2SeO4,-1.048684399
26360,K6Si2CuO8,-2.332529417
26361,ZrCuF6,-3.185382371
26362,Y3SiCuS7,-1.909599622
26363,SmCuTeS,-1.362904956
26364,KHfCuF7,-3.285153661
26365,Dy3CuSnS7,-1.805304346
26366,NbCu3S4,-0.929894033
26367,Rb3(Cu4S3)2,-0.715889972
26368,YbCu2(MoO4)3,-2.016341767
26369,V6Fe4(CuO8)3,-1.991370466
26370,V2Cu5(HO3)4,-1.434486424
26371,Cu4GeS4,-0.538013627
26372,Cu3P4S4I3,-0.409469301
26373,CuWO3F2,-2.035448408
26374,Na4Cu(MoO4)3,-2.050252432
26375,Li2Cu(WO4)2,-2.064771086
26376,VCuSe2O7,-1.499327806
26377,MgV2(CuO4)2,-2.038955526
26378,TlCu2P2O7,-1.985347858
26379,La4Cu3MoO12,-2.707024088
26380,LiCu2Ge,-0.180487274
26381,K(CuSe)2,-0.534192355
26382,La3CuSnSe7,-1.420485489