id,Composition,FormationEnergy
22903,CrCo3(PO4)4,-2.21124633
22904,VCo(PO4)2,-2.43241641
22905,Ti3CoCu2(PO4)6,-2.620879392
22906,KV5Co(H8O11)2,-1.769222775
22907,Cr2Fe3Co(PO4)6,-2.37714272
22908,Ti3NbCo2(PO4)6,-2.781497954
22909,Li4Fe3Co2Sb3O16,-1.772890937
22910,Li4Ti2Fe4(CoO6)3,-2.03992054
22911,Li2V5CoO12,-2.298083619
22912,Ti3Co2Te(PO4)6,-2.639755267
22913,Li4V5Co3O16,-2.192023288
22914,Li4Co2Ni3Sn(PO4)6,-2.259197009
22915,Li4CrCo2Ni3(PO4)6,-2.251397349
22916,Li4Ti3Nb2Co3O16,-2.711342894
22917,Li4Co3Sn3(SbO8)2,-1.977199299
22918,Li4Nb3Co3(SnO8)2,-2.299298654
22919,Li4Nb2Co3Sb3O16,-2.109430366
22920,Li4Fe3Co3(WO8)2,-1.938321998
22921,Na5CoHO4,-1.541933566
22922,Li4Ti3Co2Sn3O16,-2.455515919
22923,Ti3CoNi2(PO4)6,-2.674444303
22924,Li3V3(CoO6)2,-2.11353198
22925,Li4Ti3V3(CoO8)2,-2.626057656
22926,Li4Mn3Co3(SnO8)2,-1.929123928
22927,Li4Ti5Co3O16,-2.704353406
22928,Li4Fe3Co3(CuO8)2,-1.515419822
22929,Li4Ti4Co5O18,-2.319985387
22930,VFe3Co2(PO4)6,-2.350718793
22931,Li3Fe2(CoO4)2,-1.742066669
22932,LiMnCo3O8,-1.497155594
22933,Li4Ti3Co3(SnO8)2,-2.410875923
22934,Li10Mn2Fe3Co3O16,-1.905230474
22935,Li4Cr3Co3(SnO8)2,-1.990221706
22936,Li4TiCo2Ni3(PO4)6,-2.375496843
22937,Li4V3Co2Sn3O16,-2.153882531
22938,Li4Mn3Cr3(CoO8)2,-1.984318627
22939,Li2Mn(CoO3)2,-1.723251432
22940,Li4V2Co3Sn3O16,-2.035645231
22941,Ti3MnCo2(PO4)6,-2.761527056
22942,Li5CoHO4,-1.84388321
22943,Li4Co3(NiO4)3,-1.407133697
22944,LiMn2(CoO4)2,-1.627527174
22945,Li4V2Fe3Co3O16,-1.934241079
22946,Li4Co3P4O15,-2.43439114
22947,Li4Mn3(CoO4)3,-1.858990738
22948,Li10Cr3Co2Ni3O16,-1.817958649
22949,Li10Ti2Fe3Co3O16,-2.178086771
22950,LiCo3NiO8,-1.219164933
22951,Li10Mn3Co2Ni3O16,-1.760818386
22952,Li4Co3P4(H3O4)6,-1.896890766
22953,SrLiLa7(CoO8)2,-3.15284415
22954,Li10Ti2Mn3Co3O16,-2.207151453
22955,Li4Mn2Co3O10,-1.84636913
22956,Li10Fe3Co2Ni3O16,-1.707690476
22957,Li4Co2Ni3O10,-1.394515459
22958,Li3Co2(NiO4)2,-1.450931077
22959,Li4Co4(OF3)3,-2.329666531
22960,Li7Cr3Co(PO4)6,-2.571487415
22961,Li4Ti3Co3(WO8)2,-2.442874656
22962,LiCoH8(SO6)2,-1.663331631
22963,Li4Ti3(CoO4)3,-2.472492193
22964,Li7FeCo3(PO4)6,-2.398400291
22965,Li10Mn3Cr3(CoO8)2,-2.073818743
22966,Cr19O48,-1.698911481
22967,Cr3P,-0.351015137
22968,Li10Fe2Co3Ni3O16,-1.676654062
22969,Li2Co4O3F8,-2.14383952
22970,Mn3Cr3(CoO8)2,-1.655102412
22971,Li2Co4O7F,-1.615763255
22972,Li8Fe7Co(PO4)12,-2.444148883
22973,Ti3VCo2(PO4)6,-2.763920455
22974,Li4Co5Te3O16,-1.613837086
22975,Li3Ti2(CoO4)2,-2.471291786
22976,Li3Co(OF)2,-2.356299964
22977,Li3Co4WO8,-1.775605042
22978,Li4CoOF5,-2.720253745
22979,CrNi2,-0.02300478
22980,V5Co(PO4)6,-2.55815847
22981,Li4Fe3Co3(SnO8)2,-1.807196119
22982,Cr3S4,-1.051421669
22983,Li4Cr3Co3(WO8)2,-2.086779247
22984,Li4Fe3Co3(TeO8)2,-1.80528621
22985,Ti3Mn2Co(PO4)6,-2.811174799
22986,Ti3Co2Ni(PO4)6,-2.661498708
22987,Li4Co3Ni3(SnO8)2,-1.557490756
22988,Li4Mn2Co3Sn3O16,-1.881399534
22989,CsCoH24(SO10)2,-1.540944165
22990,Li4Mn3Co2Sb3O16,-1.957082504
22991,Li4CoNi3(PO4)4,-2.320234153
22992,Cs2CoH12(SO7)2,-1.722341359
22993,Li4FeCo3(PO4)4,-2.440644112
22994,Tl2CoP4(HO2)8,-1.999122363
22995,CrPd3,-0.076276235
22996,CoMoH2SeO7,-1.585161422
22997,Li4Mn3Co2Ni3O16,-1.54187783
22998,Ti3Co2P6WO24,-2.706526626
22999,Li4Ti2Mn3Co3O16,-2.211484898
23000,Cr2N,-0.522814031
23001,LiCoSO4F,-2.203433569
23002,LiCoHSO5,-1.957269838
23003,Li2CoPHO5,-2.227718408
23004,Cr3Rh,0.064906866
23005,ZnCr3,0.231030993
23006,Tl3Cr,0.452131882
23007,MgCr,0.567370568
23008,Rb3Cr,0.696036148
23009,Rb2CoP4(HO2)8,-2.139319064
23010,Li3Cr,0.385518445
23011,Nd3Cr,0.361591924
23012,Mg3Cr,0.253543379
23013,Sm3Cr,0.352998465
23014,Sr3Cr,0.481644305
23015,UCr3,0.365629994
23016,Na3Cr,0.551232414
23017,Cr3Cu,0.294550225
23018,Cr3Se,0.352885815
23019,Mn3Co2Sn(PO4)6,-2.323041665
23020,Fe3Co2Te(PO4)6,-2.253465706
23021,NbCr3,0.09459629
23022,Nb3Cr,0.111109425
23023,ZnCr2O4,-2.169932434
23024,MgCr2O4,-2.546487874
23025,HoCr2O6,-2.351294742
23026,MgCr4O9,-1.964280174
23027,ZnCr4O9,-1.763677513
23028,CrCuO4,-1.342042548
23029,Cr4O9,-1.700280757
23030,Cr3P3O13,-2.405582214
23031,YCrO3,-3.199077184
23032,CrP2O7,-2.350666219
23033,CrF6,-2.093321751
23034,Cr2S5,-0.686540319
23035,MgCrF6,-3.13202587
23036,ZnCrF6,-2.656098085
23037,Zn(CrSe2)2,-0.585744346
23038,Cr2O5,-1.698851079
23039,Y2Cr3O9,-2.598155975
23040,YCr3O9,-2.035074953
23041,Y2Cr3O12,-2.366725899
23042,MgCrO2,-2.221217171
23043,Sr2YTlCo2O7,-2.312913885
23044,ZnCr2F12,-2.388132186
23045,Cr(SiO3)2,-2.761410825
23046,YCr2O4,-2.662953134
23047,ZnCrO2,-1.678695459
23048,Zn2Cr3O8,-1.878180725
23049,MgCrF5,-3.346314387
23050,Sr2CoCuSO3,-2.018982202
23051,Y2Cr2O7,-2.953162287
23052,MgCrF4,-3.24318247
23053,Sr6Y2Co3(Cu2O7)3,-2.126852375
23054,PrCr2O6,-2.287494482
23055,La2CrO6,-2.820280555
23056,Sr3MgCo2S2O5,-2.110283318
23057,Sr4MgCo2(SO3)2,-2.282881619
23058,YCr3O6,-2.663227113
23059,YCrO4,-2.775103964
23060,ZnCr2O6,-1.566858392
23061,MgCr2O6,-1.892183054
23062,Cr9O13,-2.034211614
23063,Mg2Cr9O13,-2.159895914
23064,Zn2Cr9O13,-1.932200662
23065,Cr5O7,-2.013066445
23066,ZnCr5O7,-1.913285055
23067,SrZnCo(PO4)2,-2.63957371
23068,SrMgCo(PO4)2,-2.864689945
23069,Sr2YGaCo2O7,-2.54576167
23070,Sr3Co2Cu2S2O5,-1.833392285
23071,YCrF5,-3.64153275
23072,Zn3Cr2O7,-1.83048696
23073,ZnCrF5,-2.809860326
23074,Mg2Cr2O5,-2.335289031
23075,Zn2Cr2O5,-1.746130337
23076,MgCrO3,-2.399228467
23077,ZnCrO3,-1.844002969
23078,CrSiO4,-2.200774677
23079,Cr2(GeO4)3,-1.524903489
23080,CrWO6,-1.646192973
23081,Cr2CuO7,-1.418079497
23082,Cr(WO4)2,-1.997387158
23083,YCr3F15,-2.76815045
23084,MgCr2O7,-1.877475137
23085,ZnCr2O7,-1.607536817
23086,ZnCr4O6,-1.944896271
23087,Cr3(FeO6)2,-1.685460327
23088,MgCr4O6,-2.196893258
23089,Mg2Cr3O8,-2.37691126
23090,ZnCoNiP2O9,-1.957841367
23091,MgCoNiP2O9,-2.183708076
23092,Cr4(CuO4)3,-1.587431128
23093,MgCr2O5,-2.151566688
23094,Cr(GeO3)2,-1.976705446
23095,ZnCr2O5,-1.7956749
23096,LaMgFeCoO6,-2.344645935
23097,LaZnFeCoO6,-2.048921857
23098,TiZnCo(PO4)3,-2.566806181
23099,MgCr3O7,-2.026813216
23100,ZnCr3O7,-1.766821942
23101,MgTiCo(PO4)3,-2.714700668
23102,Cr3O7,-1.725943178
23103,Y4Co13Si2(SbO14)2,-2.122870685
23104,LaMgCrCoO6,-2.471257057
23105,LaZnCrCoO6,-2.178116481
23106,CrSiCu2,0.132488908
23107,CrInCu2,0.186273687
23108,CrInNi2,0.224728225
23109,CrFe2Sb,0.199269013
23110,CrFe2Sn,0.262378793
23111,CrFeTe,0.125552747
23112,CrSnRh2,-0.294552002
23113,CrFe2Si,-0.25018021
23114,CrGaP2,-0.092228873
23115,CrNiSb,-0.030975267
23116,CsCr5S8,-1.134485898
23117,U2CrN3,-1.344710111
23118,Cr2NiSe4,-0.423206505
23119,Mn(CrSe2)2,-0.498260942
23120,Ti(CrTe2)2,-0.36195595
23121,V(CrS2)2,-1.145785781
23122,Pr2CrS4,-1.849051311
23123,V2CrSe4,-0.648830979
23124,V2CrTe4,-0.268404107
23125,Ti(CrSe2)2,-0.712602586
23126,V(CrTe2)2,-0.229324441
23127,Ti2CrTe4,-0.547525848
23128,Cr2FeTe4,-0.109223507
23129,LaCrS3,-1.85639168
23130,Cr2GaN,-0.400433194
23131,Cr3PdN,-0.260656316
23132,Cr3PtN,-0.407181768
23133,Cr3SnN,-0.18609976
23134,Sm3CrSe6,-1.547334947
23135,TiCrP,-0.956110415
23136,Dy(CrGe)2,-0.289120166
23137,Er(CrSi)2,-0.432349514
23138,Lu(CrSi)2,-0.425334574
23139,Np(CrSi)2,-0.012761339
23140,KCr5S8,-1.175428075
23141,Th2CrN3,-1.540505595
23142,Sr3CrN3,-0.994737929
23143,LaCrGe3,-0.457688517
23144,PrCrGe3,-0.391933641
23145,NdCrGe3,-0.390678664
23146,SmCrGe3,-0.38093791
23147,Hf6Cr5Si7,-0.631892153
23148,CrWN2,-0.468053529
23149,CrSbSe3,-0.400882662
23150,Zr2Cr30P19,-0.494474781
23151,NdCrS3,-1.779017343
23152,SmCrS3,-1.77440383
23153,Cr2HgS4,-0.938702604
23154,Mn(CrS2)2,-1.07091887
23155,Sc2Cr4Si5,-0.54981477
23156,Nb4CrSe8,-0.684651498
23157,Er3CrS6,-2.116964954
23158,ZrCr5P3,-0.595165843
23159,CrNiO4,-1.458174836
23160,LiCr(SiO3)2,-2.932405825
23161,DyCrO4,-2.796731821
23162,Na2CrO4,-2.009966249
23163,CrWO4,-2.272845345
23164,LiCrO2,-2.399086148
23165,Cr2SiO4,-2.494728994
23166,Sr3Cr2O8,-2.611538148
23167,LaCrO3,-3.10828945
23168,NaCr(WO4)2,-2.244601164
23169,Sr2CrO4,-2.766439706
23170,Sr5Cr3O12F,-2.801692802
23171,PrCrO4,-2.743556139
23172,K3CrO8,-1.501607444
23173,KCr4O8,-2.155551908
23174,Na4CrO4,-1.916849884
23175,LaCrS2O,-2.318325907
23176,CrPO4,-2.58316655
23177,SmCrO4,-2.769812095
23178,ScCrO3,-3.132850575
23179,YbCrO4,-2.586070852
23180,RbCr4O8,-2.146227747
23181,HoCrO4,-2.774860809
23182,NdCrO3,-2.999987914
23183,ErCrO3,-3.238443603
23184,MgCrO4,-2.213439841
23185,NdCrO4,-2.75361216
23186,CrPbO4,-1.74822444
23187,CrHgO4,-1.31589973
23188,K2CrO4,-2.086546652
23189,ErCrO4,-2.798470527
23190,RbLiCrO4,-2.111231382
23191,SmCrO3,-2.974949763
23192,TbCrO4,-2.794580662
23193,NaCr3O8,-1.921884903
23194,Cr2NiO4,-1.768098304
23195,KCr3O8,-1.961157855
23196,PrCrO3,-3.010644599
23197,LuCrO4,-2.799746822
23198,Cr2(SO4)3,-2.139619428
23199,Ti2CrO5,-3.105454982
23200,DyCrO3,-3.22693059
23201,K3CrO4,-1.951183924
23202,VCrO4,-2.357870416
23203,SrCr10O15,-2.314551937
23204,Mn3Cr2(SiO4)3,-2.689577786
23205,UCrO4,-3.170483469
23206,GdCrO3,-3.162670427
23207,Rb2CrO4,-2.083742981
23208,Rb2Cr2O7,-1.956868713
23209,LaCrO4,-2.793628489
23210,YbCrSb3,-0.338943054
23211,Pu(CrSi)2,0.085958993
23212,LaCrSb3,-0.507457654
23213,Dy(CrSi)2,-0.431981116
23214,NbCrN,-0.826515357
23215,NbCrP,-0.714344203
23216,Cr2FeS4,-0.92563252
23217,Cr3RhN,-0.323782744
23218,NbCrGe,-0.264821637
23219,CrFeP,-0.564907639
23220,ZrCrSi2,-0.621478614
23221,Er2CrS4,-1.972916249
23222,U2Cr30P19,-0.484519037
23223,UCrS3,-1.474968621
23224,Cr2CuTe4,-0.211009249
23225,Cr2CuS4,-1.010281693
23226,Tl4CrI6,-0.560071312
23227,Cr2WO6,-2.296780102
23228,Cr2HgO4,-1.883885124
23229,Cr2FeO4,-2.084565087
23230,CrPb2O5,-1.719934221
23231,UCr2O6,-2.901246647
23232,TmCrO4,-2.804438686
23233,CrPbO3,-1.749672863
23234,SrCrO3,-2.557106993
23235,GdCrO4,-2.755997689
23236,Cr2TeO6,-2.019535933
23237,Li2CrO4,-2.10738071
23238,TlCrP2O7,-2.500104067
23239,KCrP2O7,-2.697566594
23240,Tl2CrO4,-1.532752303
23241,CrHO2,-2.020848258
23242,LiCr(GeO3)2,-2.247812189
23243,CsCrI3,-0.818163542
23244,RbCrI3,-0.776408324
23245,Cr2NiS4,-0.929036592
23246,NbCrSe5,-0.580561058
23247,RbCr5Se8,-0.642250639
23248,U(Cr3P2)2,-0.542559875
23249,Nb2Cr4Si5,-0.473013479
23250,Cr3GaN,-0.331514495
23251,CrGaFe2,-0.026938506
23252,Zr2Cr4Si5,-0.545942769
23253,Cr2ReO6,-2.221054482
23254,Ta2CrO6,-3.048669037
23255,CrReO4,-2.153135023
23256,Cr2P3O10,-2.538000434
23257,Cr2P5O16,-2.558885191
23258,Cr4(PO4)3,-2.482112021
23259,Cr(PO3)3,-2.608236238
23260,Cr9(PO4)8,-2.480029688
23261,CrOF3,-2.257256993
23262,Tl2Cr2O7,-1.584411741
23263,Cr2P3O11,-2.519492839
23264,Cr(PO3)4,-2.438272373
23265,Cr3(PO4)4,-2.31748705
23266,RbCr3O8,-1.965557714
23267,Nb4Cr2Si5,-0.518281316
23268,NaCrSe2,-0.804398558
23269,Cr2HO4,-1.950534149
23270,CrSbO4,-2.124364276
23271,TlCr5Se8,-0.528922117
23272,Mn2CrO4,-2.189104139
23273,Th(CrGe)2,-0.289608042
23274,CrSiTe3,-0.180316224
23275,Cr2CuSe4,-0.478822326
23276,Sm2Cr2Fe15,0.039552537
23277,KCrS2,-1.263767507
23278,Zn(CrS2)2,-1.130062493
23279,LiCrS2,-1.32648547
23280,TlCrTe2,-0.254055862
23281,Y(CrSi)2,-0.429712422
23282,Cr6P7O24,-2.543398048
23283,Cr4P9O32,-2.32428028
23284,Cr2CuO4,-1.934372764
23285,K2Cr3O10,-1.841235031
23286,CsCr5Se8,-0.647043026
23287,Cr7(PO4)6,-2.553877448
23288,UCr5P3,-0.534838376
23289,CrCuO2,-1.780936433
23290,Cr3IrN,-0.367312212
23291,Cr3SiNi2,-0.059872068
23292,Ta2Cr4Si5,-0.146542266
23293,Tb3CrSe6,-1.538608762
23294,U(CrSi)2,-0.227499483
23295,Li15Cr2N9,-0.775495037
23296,Dy(CrS2)3,-1.421630886
23297,Nb4CrS8,-1.494843342
23298,Th(CrSi)2,-0.416145406
23299,Cr3(P2O7)2,-2.557775255
23300,Cr2(PO4)3,-2.333519345
23301,CrPO5,-2.19105072
23302,Cr5(PO4)4,-2.526294437
23303,Cr2P3O13,-2.170013161
23304,U8CrS17,-1.807663815
23305,MnCr2O4,-2.333649152
23306,CrGeTe3,-0.161544321
23307,CrHg5O6,-0.947971843
23308,Cs3Cr2I9,-0.922304215
23309,TlCr5S8,-1.059587902
23310,Cr6Si7Ni16,-0.340482172
23311,CrPS4,-0.873480279
23312,Cr(MoS2)2,-1.05100332
23313,TlCr3S5,-1.032959911
23314,SrCrO4,-2.473192872
23315,RbCrF6,-2.652987775
23316,SrCrF6,-3.248286645
23317,NbCrF6,-3.116857631
23318,NaMnCrF6,-3.064429871
23319,KCrF3,-2.867341338
23320,Li2CrF6,-2.958411693
23321,MnCrF5,-3.010370548
23322,KUCrO6,-2.778549501
23323,CrCuS2,-0.66655604
23324,ZrCrF6,-3.528719307
23325,Y2CrS4,-1.972808824
23326,Ho(CrSi)2,-0.431950926
23327,CsCrF4,-3.107796341
23328,Cs2NaCrF6,-3.119486942
23329,CrMoF6,-2.956614003
23330,Cs2CrF6,-2.935814246
23331,K2Cr2O7,-1.954541022
23332,K2Cr4O13,-1.780526857
23333,SrCrF4,-3.560903311
23334,CrXeF6,-1.947769761
23335,Na2CrF4,-2.925622851
23336,NaCrF6,-2.553214402
23337,CrHgF6,-2.32307976
23338,K3Cr2(PS4)3,-1.120570692
23339,Na3Cr2(PS4)3,-1.044900261
23340,KCrCuF6,-2.678346384
23341,KCrF4,-3.112022008
23342,Rb3CrF7,-2.962079341
23343,NaCrF4,-3.076151331
23344,Cr2HgSe4,-0.446821763
23345,Rb2CrF6,-2.91580733
23346,Cr2Te4O11,-1.758412833
23347,Tl2Cr3O12,-1.459202928
23348,Na3CrF6,-3.079990041
23349,Rb2NaCrF6,-3.131466883
23350,Cs2KCrF6,-3.136972995
23351,KCrF6,-2.642292872
23352,Na3Li3Cr2F12,-3.138968492
23353,Rb2CrF5,-3.113284974
23354,Li3CrF6,-3.161772386
23355,KCrO2,-2.124028211
23356,Cr3CuO8,-1.685481425
23357,Cr2P4O13,-2.611385756
23358,SrCr2O4,-2.662651868
23359,Sr9Cr5O18,-2.795315496
23360,CrHg3(SO2)2,-1.044738853
23361,CrHg3O5,-1.068341593
23362,K2CrSO7,-2.11862233
23363,Na5Cr3F14,-3.070811089
23364,TlCr3O8,-1.793947819
23365,Cr2HgO7,-1.405998593
23366,SrCr2O7,-2.117661007
23367,KCr2FeO8,-1.865769861
23368,KCrIO6,-1.497009012
23369,CrSbF10,-2.483012828
23370,Sr4Cr3O9,-2.736702678
23371,Na2CrNiF7,-2.825119469
23372,CrHg3(PbO4)2,-1.272154777
23373,LiCr3O8,-1.920716289
23374,Cr2(Hg2O3)3,-1.089344333
23375,KV2CrO7,-2.380521556
23376,Cr2PIO4,-2.106176524
23377,Tm(CrSi)2,-0.431334213
23378,KCr2PbF9,-3.01549486
23379,Sm(CrSi)2,-0.394489568
23380,Np(CrGe)2,0.016056929
23381,Cr(FeSe2)2,-0.290265135
23382,Yb(CrSi)2,-0.273332864
23383,CrCuSe2,-0.360827012
23384,NaCrS2,-1.273285868
23385,Cr3InO8,-1.868447934
23386,La3(CrN3)2,-1.25108479
23387,Nd(CrSi)2,-0.364997229
23388,Nb2CrSe4,-0.479997265
23389,CrCu(PS3)2,-0.750906733
23390,Cr2FeSe4,-0.388003446
23391,NaCrO2,-2.258185744
23392,Rb2Cr5F17,-3.082450907
23393,Cr3(PO4)2,-2.471151249
23394,Cr4P7O24,-2.562504408
23395,Cr3HO8,-1.564817487
23396,Cr(OF)2,-1.876229961
23397,Gd(CrSi)2,-0.402549113
23398,Cs3CrF7,-2.974177381
23399,CsLiCrO4,-2.121015682
23400,RbCr3S5,-1.19617102
23401,Rb2Cr4O13,-1.782786313
23402,SrCrP2O7,-2.914220277
23403,EuCrO4,-2.523563777
23404,SrCrW2,1.453345678
23405,SrCrRh2,0.309642805
23406,MnCrRe,0.709946595
23407,CrRuIr,0.636189982
23408,CrGaTe,0.492806788
23409,ZrCrFe,0.728903167
23410,NbCrW,1.030536503
23411,SrCrPd2,0.118239875
23412,CrNi2Hg,0.397207583
23413,Cr3GeN,-0.330778206
23414,CsCr3O8,-1.962469799
23415,RbCrF5,-2.888614565
23416,Rb2Cr3O10,-1.845699052
23417,Cs2CrO4,-2.094412927
23418,Cr2(MoO4)3,-2.158874917
23419,CsCrP2O7,-2.682820623
23420,Cr3Pb5F19,-2.846103228
23421,K3Cr11S18,-1.191346247
23422,Cr(GaS2)2,-0.733039919
23423,Cr4Cu3Se8,-0.410908951
23424,Cr4Cu3Te8,-0.173999839
23425,Cr2SbTe,0.232944268
23426,CsCrI2,-0.576484601
23427,Li9CrN5,-0.72235076
23428,Cr(PS3)3,-0.590877267
23429,Na3Cr11Se20,-0.550785389
23430,Ti(CrS2)2,-1.03614845
23431,Cr9In7S24,-1.020004665
23432,Na4Cr13Se23,-0.576985126
23433,Cr4(Ga2Se5)3,-0.528111417
23434,Cr10Sb3Te7,0.046772152
23435,Cr(InS2)2,-0.938063074
23436,K3Cr4PO16,-1.982939227
23437,Cr3GaS6,-1.048249334
23438,ThCr(IO5)2,-1.83035236
23439,Zr2Cr2F3,-1.356155844
23440,NbCrO4,-2.731815849
23441,K3CrF3,-2.09387528
23442,CrNiF6,-2.470192998
23443,Cr14MoO24,-2.262946624
23444,Sr3Cr2O7,-1.110316509
23445,Cr6PbO18,-1.306018065
23446,Cr(PO4)2,-2.119363076
23447,Na4UCr3O14,-2.252031174
23448,Na2CrFeF7,-2.978729969
23449,Cr2P4Pb3O16,-2.497574328
23450,Na2Cr2O7,-1.87858941
23451,RbNaCr2O7,-1.916436898
23452,Cr(PO3)5,-2.362068519
23453,CrPb5O8,-1.619119913
23454,Cs2Cr4O13,-1.799369007
23455,Cr2P2O7,-2.537423543
23456,TlCrO4,-1.505954738
23457,Sr3CrN4,-1.107311475
23458,RbCr5S8,-1.176848454
23459,CrHSe3O8,-1.213389558
23460,CrH15S2O15,-1.630330629
23461,Cr2Hg2H2O9,-1.318337718
23462,CrH10SO9,-1.365402918
23463,Na2Cr(HO)8,-1.610565561
23464,Li5CrS4,-1.368295365
23465,Li2CrS3,-1.258325728
23466,Li2CrS4,-1.139538501
23467,Li6CrS4,-1.359332702
23468,Li8CrS6,-1.416689648
23469,Li3CrS4,-1.255203581
23470,Li3(CrS2)4,-1.225080544
23471,Li7Cr3(SiO6)2,-2.57191411
23472,Li2CrSiO4,-2.62357659
23473,Li9Cr5(SiO8)2,-2.528209652
23474,Mn6Cr9O20,-2.297198073
23475,Li2Cr3(SiO3)4,-2.792925964
23476,Li2Cr3Si3O10,-2.681785868
23477,Li2Cr2Si4O11,-2.870629289
23478,Li3Cr5O10,-2.242095147
23479,Li2Cr(SiO3)2,-2.754190047
23480,Li2Cr2Si2O7,-2.603149418
23481,Li2Cr(Si2O5)2,-2.949563499
23482,Li2CrSi3O8,-2.872214198
23483,Li2Cr2SiO6,-2.587705654
23484,LiCrSiO4,-2.740453661
23485,Li2CrSi4O11,-2.895331043
23486,Li2Cr3O6,-2.253376212
23487,Li15Cr2O12,-2.071244427
23488,TaCrO4,-2.880656516
23489,Li2Cr2Si2O9,-2.574855066
23490,Li5Cr5O12,-2.169091548
23491,Li3Cr(Si2O5)3,-3.017971907
23492,Li7Cr2O8,-2.14220115
23493,Cr4OF11,-2.882143453
23494,Cr3P4O15,-2.460108417
23495,LiCrF4,-3.066190871
23496,Li4Cr5O10,-2.323390862
23497,Li3CrO4,-2.119080018
23498,Li5Cr2O8,-2.087189419
23499,Cr2O5F2,-1.737461414
23500,Cr4CuO12,-1.50891853
23501,MnCr3O8,-1.902264539
23502,CrOF,-2.646783241
23503,Cr2OF2,-2.403061425
23504,Li2CrO3,-2.160428602
23505,Li2CrF4,-2.968200639
23506,Li12Cr5O16,-2.148995601
23507,Mn2Cr3O12,-1.730826357
23508,NaCr4O8,-2.111688747
23509,Na5CrO4,-1.686661053
23510,Cr3(CuO6)2,-1.302290014
23511,NaCr2O4,-2.184971585
23512,Li9Cr5O12,-2.257662946
23513,LiCr2O4,-2.177583786
23514,CrOF4,-2.093950815
23515,Cr3(OF)2,-2.222914643
23516,TiCr7O12,-2.456762616
23517,Cr(SO4)2,-1.916809302
23518,Cr11Ni40Mo9,-0.044860309
23519,Cr8Ni50Mo17,-0.054833677
23520,Li4CrS4,-1.331302488
23521,Li2Cr(Si2O5)3,-2.951049059
23522,Cr4OF6,-2.614205632
23523,Mn2CrO6,-1.818135886
23524,Cr5(Si2O7)2,-2.63712841
23525,La2Ti2CrO9,-3.374871862
23526,ZnCr3(SO4)6,-2.052239527
23527,Cr22Ni50Mo3,-0.033968636
23528,VCrO3,-2.433558409
23529,Cr4Si4O13,-2.734541157
23530,Cr7Ni20Mo3,-0.044165191
23531,CrP2S7,-0.745707197
23532,Mn7CrO16,-1.787529097
23533,CrInO3,-2.136817554
23534,CrIrO4,-1.718890088
23535,HfCrO3,-3.114622151
23536,Li6CrO6,-2.006025974
23537,Li4Cr3GaO8,-2.379958548
23538,Li2Cr2O7,-1.87701133
23539,Li4CrO4,-2.178132648
23540,LiCr2O3,-2.173075985
23541,HoCrO3,-3.232511737
23542,La3Ti3CrO12,-3.566289344
23543,ScCrO4,-2.634188198
23544,Cr(SbO3)2,-1.972811109
23545,VCr2O4,-2.209402655
23546,ZrCrO4,-2.871194652
23547,Li4CrF6,-3.043338759
23548,MnCrO4,-1.880291672
23549,CrFeO4,-1.725685072
23550,TbCrO3,-3.219112139
23551,TiCrO3,-2.786869724
23552,CrFe2O5,-1.889487438
23553,Mn3CrO8,-1.796897971
23554,Cr3TeO8,-1.941524175
23555,LiCr2(SO4)3,-2.139747225
23556,Li2Cr4O13,-1.753647644
23557,Li2CrO2,-2.021847239
23558,Li2Cr2(SO4)3,-2.205338149
23559,CrGaO4,-1.891370497
23560,ZnCrO4,-1.711971201
23561,Li8CrO6,-2.110975717
23562,Li5CrO5,-2.088299518
23563,ZrCrO3,-3.001227275
23564,LiCr3O9,-1.722347343
23565,Li12CrGa11O24,-2.358641611
23566,LiCr10O15,-2.22827943
23567,LiCr2O5,-1.981455763
23568,Li4CrO5,-2.07511431
23569,Li6Cr2O7,-2.178077465
23570,Li3CrO3,-2.193297582
23571,Li8Cr2O9,-2.095981117
23572,Cr2PO5,-2.426162852
23573,Mn5Cr3O16,-1.806637938
23574,CrSO4,-2.088569615
23575,Li7CrO6,-2.081983673
23576,Cr10Fe5O24,-2.030180776
23577,Mn15CrO32,-1.782371887
23578,Li3Cr4O8,-2.311916355
23579,Cr5Sb3O16,-1.997146667
23580,Li7Cr5O12,-2.312726335
23581,Mn5Cr2O12,-1.909562869
23582,Cr2(WO4)3,-2.164247075
23583,Li4CrGa3O8,-2.296904495
23584,Cr3(FeO4)2,-2.007056008
23585,EuCrO3,-2.71411451
23586,V4CrCuO12,-2.188652772
23587,Li4Y3CrO8,-3.000963087
23588,V2CrO6,-2.312312302
23589,RbCrO2,-2.001782206
23590,CrPtO2,-1.648938336
23591,KLi4CrO5,-2.048673493
23592,VCr2O6,-2.18350169
23593,Li4Cr3O8,-2.178548376
23594,Li2Cr3O10,-1.726666857
23595,Li6CrO4,-1.994440007
23596,LiCr6O11,-2.157950343
23597,Li5CrO4,-2.103381577
23598,Cr(PO3)2,-2.50689754
23599,CrP4O11,-2.53352772
23600,Cr3SbO8,-1.986700038
23601,LiCr4O12,-1.647066176
23602,Cr3WO8,-2.141234667
23603,Mn3Cr5O16,-1.885996049
23604,Mn4CrO8,-1.992219679
23605,LuCrO3,-3.255041921
23606,Mn3Cr2Te3O16,-1.727443709
23607,VCrO5,-1.970413239
23608,V2Cr3Sb3O16,-2.10471621
23609,Cr4P2O9,-2.34779753