id,Composition,FormationEnergy
8212,Sr3BPO3,-2.602249971
8213,Ba4Na(BN2)3,-1.133316793
8214,Ba3BPO3,-2.503641637
8215,Rb3BP2,-0.384274247
8216,Sr4Li(BN2)3,-1.26410067
8217,B4PbO7,-2.663588171
8218,NdB2HF10,-3.369328577
8219,K3Ta3(BO6)2,-3.078831298
8220,YB2C,-0.521540685
8221,BaTe,-1.78906608
8222,BaN2,-0.764076577
8223,CsBPb(IF2)2,-2.402812636
8224,BaO2,-2.042031511
8225,Ba,0.73845942
8226,BaO,-2.807483153
8227,BaPd,-0.54358516
8228,Ba5Sb4,-1.050116217
8229,BaSi2,0.1215695
8230,Ba3N2,0.107500729
8231,Ba3P2,-0.537238035
8232,Ba3Sb2,-0.60027247
8233,Ba3Bi2,-0.514882854
8234,BaC2,0.180539371
8235,Ba2Zn,-0.133940403
8236,Ba2CaSi4(BO7)2,-3.328100991
8237,Ba3ZnB5PO14,-3.03123009
8238,Ba3Si2(B3O8)2,-3.166354851
8239,BaNaLi3(BO2)6,-2.859156337
8240,Cs2Li2B2P4O15,-2.777074949
8241,Cs2Li5(BO2)7,-2.726855276
8242,Cs2Sr2Li3B3(PO4)6,-2.923144618
8243,Cs2Na2Sr(B3O5)6,-2.889934178
8244,K2Li3B(P2O7)2,-2.759391143
8245,K2LiB(PO4)2,-2.760114972
8246,K2NaZn(BO2)5,-2.663368841
8247,Na2LiB5(PO7)2,-2.798407257
8248,NaLi2B(PO4)2,-2.754502652
8249,Sr2LiBeB3O8,-3.100719248
8250,Rb2Li5(BO2)7,-2.723729765
8251,Rb2Li3B(P2O7)2,-2.756019477
8252,BaF2,-4.180652951
8253,BaNdCuBO5,-2.853191364
8254,BaGaBO3F2,-3.179109083
8255,BaSe,-1.846517459
8256,Ba3N,-0.394603619
8257,BaCd2,-0.33909219
8258,BaHg2,-0.496755163
8259,BaNa2,-0.019398948
8260,Ba3P14,-0.510999952
8261,BaGa2,-0.471290653
8262,Ba2Ge,-0.487108532
8263,Ba3P4,-0.949922851
8264,BaSi6,-0.081804984
8265,Sr2LiIn(B2O5)2,-2.912745074
8266,BaLaCuBO5,-2.87678275
8267,BaS,-2.410637557
8268,KNa2Si12(BO10)3,-3.139114314
8269,BaHg11,-0.159812158
8270,Ba6Si25,-0.184295322
8271,Ba3Si4,-0.405389354
8272,BaPd2,-0.582251852
8273,RbLi2Ga2(BO3)3,-2.614802371
8274,Ba2Sb3,-0.84703025
8275,BaN6,-0.509628311
8276,BaGe,-0.590019342
8277,Ba5Sn3,-0.619970351
8278,Ba5P4,-1.010224149
8279,BaC10,0.16953686
8280,Sr6YSc(BO3)6,-3.357527073
8281,Ba2Mg17,-0.06398575
8282,Ba3Sn5,-0.621645283
8283,Ba2N,-0.523370241
8284,BaMg2,-0.088332657
8285,Ba2Sn,-0.606293788
8286,BaPb,-0.589214845
8287,BaLi4,0.009446032
8288,Ba2Pb,-0.544427027
8289,BaGe2,-0.526911826
8290,BaPb3,-0.374601975
8291,BaTe2,-1.189540928
8292,Ba5Ge3,-0.502887332
8293,Ba3Ge4,-0.56713241
8294,BaSb2,-0.716654598
8295,BaHg,-0.528030095
8296,BaIn2,-0.494462792
8297,BaIn4,-0.367792798
8298,BaCl2,-2.928739011
8299,BaBi3,-0.468002873
8300,BaI2,-1.798669001
8301,BaH2,-0.586390616
8302,KScBP2HO9,-2.903503379
8303,RbScBP2HO9,-2.900951874
8304,BaS3,-1.555060598
8305,Ca2B5H2ClO10,-2.800796558
8306,ZnBP2H4NO8,-2.082399209
8307,SrCaB5H2ClO10,-2.807780285
8308,RbGaBP2HO9,-2.579583118
8309,BaSi,-0.419620678
8310,KVBP2HO9,-2.640979367
8311,BaCoBP2HO9,-2.652934482
8312,CaNiBP2H3O10,-2.388169968
8313,RbFeBP2HO9,-2.528022505
8314,VBP2H5NO9,-2.12378619
8315,BaPd5,-0.340000483
8316,BaBr2,-2.227362833
8317,BaP10,-0.264370378
8318,Ba4P3,-1.003541409
8319,Ba2S3,-2.016146591
8320,BaC20,0.231374881
8321,Ba5Bi3,-0.896651364
8322,BaSi23,0.03997989
8323,Ba3Si23,-0.086824866
8324,BaP8,-0.315146807
8325,BaZn5,-0.214474137
8326,BaBe13,0.030568507
8327,BaCu,-0.06522859
8328,Ba8Ga7,-0.366855773
8329,Ba10Ga,0.059165364
8330,BaTl2,-0.384826608
8331,BaZn2,-0.185607035
8332,Ba4Bi3,-0.910762094
8333,BaCd11,-0.172412178
8334,BaPt,-0.76359799
8335,BaIn,-0.428665005
8336,BaGa4,-0.439378822
8337,Zn3GaB6PO12,-2.413337128
8338,Ca3Er3Ge2BO13,-3.342870835
8339,BaCd,-0.32295759
8340,Na2Zr12B2I5Cl23,-1.950480003
8341,Na4Ga3Si3B(HO3)4,-2.244143924
8342,K2MgB12(H2O3)10,-2.19303114
8343,NaFeBP2H3O10,-2.318562401
8344,NaVBP2H3O10,-2.416625898
8345,Ba11Bi10,-0.887595013
8346,Ba11Sb10,-1.008068843
8347,CsNaB4H12O13,-1.962795774
8348,MgB2P2H8O13,-2.190668321
8349,CsBe2BO3F2,-3.189197446
8350,Mg2BP3(H3O7)2,-2.392974263
8351,BH11C4BrNF4,-0.976682681
8352,CaSiBHO5,-2.964813935
8353,B2H10C2NClO3,-1.005430296
8354,KZnB(PO4)2,-2.66731588
8355,BaY6Si3B6(O12F)2,-3.52867948
8356,LiBS4(ClO3)4,-1.854141269
8357,CsBC3NOF9,-1.803299167
8358,LiBH15C5NO3,-0.536821011
8359,YbBa2B2ClO6,-3.091167343
8360,BS2N2OF7,-1.838857665
8361,NaBe2BO3F2,-3.13823739
8362,RbZnB(PO4)2,-2.669024381
8363,Ba2HoB2ClO6,-3.341684637
8364,NaLiSiB3HO8,-2.743523252
8365,B2H12C3(NO)6,-1.146596919
8366,KBC4NF9,-1.669054651
8367,CsBC3NO2F9,-1.815437846
8368,SiB11H10C4F11,-1.318500233
8369,BH11C4NClF4,-1.024106766
8370,B6H21C5N2O,-0.379527059
8371,CsZnB(PO4)2,-2.678669179
8372,Ba5B3CNO9,-2.826968457
8373,KBS4(ClO3)4,-1.873074349
8374,Ca4Mn3B3CO15,-2.803605827
8375,FeB2C6(O3F4)2,-1.83276669
8376,Ba5P9,-0.840527744
8377,BaSn2,-0.579658107
8378,KBH4(CN4)2,-0.279590675
8379,Ba2Bi,-0.769234555
8380,BaRh2,-0.084176685
8381,Ba6Mg23,-0.080480017
8382,BPBr2NCl3,-0.908969005
8383,CoBH18Br2(N3F2)2,-1.06270199
8384,Ba2Bi3,-0.7625849
8385,Ba19Li44,0.009016881
8386,Ba6Ge25,-0.278985886
8387,BaSn5,-0.300191597
8388,K3Na4Si3BF22,-3.39565476
8389,NaCoBP2H2O9,-2.352011652
8390,Cs3NaLi2(BO3)2,-2.347589673
8391,Sr3BCNCl2,-1.519160325
8392,Ba5Pb3,-0.540238024
8393,Ba3Pb5,-0.510218576
8394,FeBN3O3F4,-1.462067698
8395,KFeBP2HO9,-2.381145847
8396,Ba4Si23,-0.10176154
8397,BaCu13,-0.014390917
8398,CoBC8(OF2)5,-1.491186861
8399,Ca3BCNCl2,-1.552754482
8400,Ba5Si3,-0.323423569
8401,BaZn13,-0.15980816
8402,Zn8B4H3O15F,-2.122083662
8403,SrZr12B2I5Cl23,-1.987754199
8404,Mg3BH2O5F,-2.75255192
8405,B3H60C16(NO)12,-0.687623719
8406,BaS2,-1.859439449
8407,BaNa4Ti2Si10(BO15)2,-2.995026503
8408,Sr16Cu8BC7O40,-2.424670042
8409,KBe2BO3F2,-3.192885534
8410,Na2BH4ClO4,-1.922375402
8411,Ba4Sm7Si12BN27,-1.456737381
8412,Li11Fe3B24(PbO24)2,-2.684759261
8413,BaCaBO3F,-3.462710908
8414,BaSb3,-0.54567137
8415,Ca2Ga2Bi(B2O7)2,-2.170717441
8416,Ca3YGa3B4O15,-3.008658449
8417,Ba4Nd7Si12BN27,-1.435853689
8418,Ba4Pr7Si12BN27,-1.421801231
8419,KGaBP2H3O10,-1.080229216
8420,Ba7SiB3NO13,-2.948854075
8421,Cs3B6H12S4Br,-0.694893409
8422,Ca4MgB4H6(CO9)2,-2.52437094
8423,Ba2Na2B10H2O19,-2.81653668
8424,NaCaB5H16O17,-1.763949799
8425,SiBHC3NCl2,0.029450484
8426,CaGaBiB2O7,-1.889291491
8427,BRu3H6C6O19F4,-1.144117625
8428,B3H52C16(NO)12,-0.556572772
8429,B3H12CN4O,-0.341428481
8430,NaCaB5H8O13,-2.275954293
8431,BH5C4(N2O)2,0.049196404
8432,BH5CSN2,-0.450190009
8433,Mg3B2P2(H9O10)2,-2.038983378
8434,KMg2B12H19O30,-2.235632834
8435,B11H9C(Br3O2)2,-0.406630278
8436,Na2Ca3B5H2S2ClO18,-2.7043063
8437,Mg3B2H9SO13F,-1.844473674
8438,NaCaB5(H5O7)2,-2.192133488
8439,LiBH2C4O9,-1.764587347
8440,Ca2MgB2H16(CO9)2,-1.961990551
8441,Sr7SiB3NO13,-3.006108546
8442,B10H13CSN,-0.187098104
8443,CaMgB6(HO)22,-1.975249197
8444,NaCa2B9(H2O5)4,-2.509569858
8445,KCa4B22H18ClO46,-2.517638188
8446,Na3CuB8H17O23,-2.018181649
8447,K2B6H5NO2,-0.537768527
8448,B5H12C2NO10,-1.675655744
8449,LiBH2OF4,-2.632709042
8450,RbBe2BO3F2,-3.192079079
8451,BH10C2N5O3,-0.940482884
8452,CoB12H28(NO15)2,-1.920484162
8453,Cs3B6H12Se4Br,-0.504882424
8454,Ca3YMn3B4O15,-2.942487822
8455,Na2MgB12(H4O7)4,-1.616851866
8456,Mn4Si4SnB2(HO9)2,-2.636782209
8457,NaFe9Si6B3H2O31,-2.498397083
8458,BaPt2,-0.72740425
8459,InBP2H5NO9,-2.050881914
8460,Ca2CuB2(HO)12,-1.905458195
8461,BaSe2,-1.388216949
8462,BaSe3,-1.036937706
8463,Na3CuBPO7,-2.235393117
8464,Li2BPCO7,-2.436796981
8465,NaInBP2HO9,-2.513266651
8466,RbB2P2HO9,-2.646548251
8467,KB6P(H2O7)2,-2.509591353
8468,MgBP(H3O4)2,-2.135171352
8469,FeB18H32(C4S)2,-0.2346242
8470,CsFeBP2HO9,-2.52926461
8471,Li3Fe2(BO4)2,-2.238179506
8472,Li9Mn4(BO3)8,-2.442478714
8473,Li9Cr4(BO3)8,-2.505370339
8474,Li2Fe3(BO3)3,-2.113082037
8475,Na3LiMnBPO7,-2.458569779
8476,Li9Fe4(BO3)8,-2.375589261
8477,Li3Cr(BO3)2,-2.606750102
8478,Li3Fe(BO3)2,-2.512543626
8479,Li5Fe2(BO4)2,-2.337707307
8480,RbInBP2HO9,-2.549910412
8481,FeBP2H5NO9,-2.03014995
8482,RbVBP2HO9,-2.642709535
8483,Li3Mn3(BO3)4,-2.435268194
8484,Li4Mn3(BO3)4,-2.486452423
8485,Li4MnFe2(BO3)4,-2.457899017
8486,Li3Mn2Fe(BO3)4,-2.441200052
8487,Li4Mn2Fe(BO3)4,-2.45796181
8488,Li3Fe3(BO3)4,-2.397140047
8489,Li2Mn3(BO3)4,-2.395851121
8490,Li4Fe3(BO3)4,-2.434916874
8491,Li5Fe3(BO3)4,-2.443583798
8492,Li2Mn(BO3)2,-2.435265924
8493,Li2Fe(BO3)2,-2.35598511
8494,Li11Mn12(BO3)12,-2.505717804
8495,Li3Sn(BO2)5,-2.627624676
8496,Na3BSbPO7,-2.426033759
8497,Na3BiBPO7,-2.434939476
8498,Na2SnBPO7,-2.465029048
8499,Li4B4Sb2SO16,-2.377768525
8500,Li6Sn2B4SO16,-2.483038423
8501,RbLi2B3Sb2O9,-2.358722452
8502,Li5Fe6(BO3)6,-2.364576492
8503,Li11Fe12(BO3)12,-2.360614383
8504,Li4Fe(BO3)2,-2.473931241
8505,LiFeBO3,-2.349754518
8506,LiCrBO3,-2.451544771
8507,Na4B4Sb2SO16,-2.367274731
8508,LiVBO4,-2.610937401
8509,LiVBO3,-2.48765809
8510,LiMnBO4,-2.307033366
8511,Li4Mn(BO3)2,-2.536913095
8512,LiCrB2O5,-2.639703879
8513,Na2VBPO7,-2.568457388
8514,Li3VBPO7,-2.666089844
8515,Na3MnBPO7,-2.510232459
8516,Na2MnBPO7,-2.412139188
8517,Li3CrBPO7,-2.632016633
8518,Li2VBO4,-2.521039801
8519,Na3NiBPO7,-2.257269903
8520,Li3VB4O9,-2.69342316
8521,Li3V3(BO5)2,-2.575204117
8522,LiVB2O5,-2.701982849
8523,Li3VBO5,-2.511809967
8524,Li3V(BO2)5,-2.675895034
8525,Na6Fe2B4SO16,-2.314192923
8526,LiV2BO5,-2.628157154
8527,Na6Mn2B4SO16,-2.383082643
8528,Li6Fe2B4SO16,-2.34098626
8529,RbLi2Cr2(BO3)3,-2.524882754
8530,RbLi2Co2(BO3)3,-2.281964839
8531,Na3SiBSbO7,-2.436400083
8532,RbLi2Fe2(BO3)3,-2.462147501
8533,RbLi2Ni2(BO3)3,-2.077256306
8534,RbLi2Mn2(BO3)3,-2.435283911
8535,Li3SiSnBO7,-2.614546865
8536,Li2Fe(BO2)5,-2.684966031
8537,Na3CuBSO7,-2.114802153
8538,Li2SnBO4,-2.348953814
8539,Na2SiBSbO7,-2.4966848
8540,Na2BSbSO7,-2.230098105
8541,Li3SiBiBO7,-2.428398927
8542,Na2CuBSO7,-2.038171376
8543,Li3MnB4O9,-2.60136175
8544,LiMnB2O5,-2.522474626
8545,Li3Mn(BO2)5,-2.681279644
8546,Na3CoBSO7,-2.186353783
8547,Na3NiBSO7,-2.127773813
8548,Na3VSiBO7,-2.631820114
8549,Li3CoSiBO7,-2.376513005
8550,Na2MnBSO7,-2.280448285
8551,Li3FeSiBO7,-2.474379144
8552,Li3VSiBO7,-2.695908348
8553,Na3CrSiBO7,-2.51385051
8554,Na3FeSiBO7,-2.407421491
8555,Li2SnBPO7,-2.523582424
8556,Li3MnBPO7,-2.559165857
8557,Na3FeBPO7,-2.474321715
8558,Li3FeBPO7,-2.534109436
8559,Na3CoBPO7,-2.350666285
8560,Na3CrBPO7,-2.567366992
8561,Na3CoSiBO7,-2.28661869
8562,Na2BiBPO7,-2.332991362
8563,Na2FeBPO7,-2.374209942
8564,Li3MnSiBO7,-2.559481236
8565,Na2BiBSO7,-2.226831887
8566,Li2SiBSbO7,-2.544046019
8567,Li2VBPO7,-2.628605105
8568,Li2MnBPO7,-2.471243469
8569,Na6Fe2B4PO16,-2.323399952
8570,RbLi2V2(BO3)3,-2.608691878
8571,Li2V(BO2)5,-2.75552672
8572,Li2Cr(BO2)5,-2.689204895
8573,Li2Mn(BO2)5,-2.668016915
8574,Li2Fe5B3O13,-2.212385644
8575,Li2Cr5B3O13,-2.470398589
8576,Li2V5B3O13,-2.617098425
8577,Li6V2B4SO16,-2.547740888
8578,Na3SiBiBO7,-2.386621004
8579,Na3SiSnBO7,-2.556569998
8580,Na2SiBiBO7,-2.292283309
8581,K3CuB2P4H3O17,-2.441720646
8582,Na3MnBSO7,-2.307442397
8583,Li3CrSiBO7,-2.587793543
8584,Li4Mn3Fe(BO3)4,-2.492858848
8585,Li4MnFe3(BO3)4,-2.43607258
8586,Li2MnFe(BO3)2,-2.467577663
8587,Na3Co(BO3)2,-2.226793111
8588,Na3Mn(BO3)2,-2.398016693
8589,Na3MnSiBO7,-2.481180213
8590,Li8Mn5Fe3(BO3)8,-2.480306207
8591,Li8MnFe7(BO3)8,-2.421528581
8592,Li8Mn7Fe(BO3)8,-2.508229717
8593,Na3FeBSO7,-2.248700621
8594,Li6Mn5Fe(BO3)6,-2.506883351
8595,Li6MnFe5(BO3)6,-2.425535955
8596,Li3MnFe2(BO3)3,-2.445975307
8597,Li3Mn2Fe(BO3)3,-2.486750014
8598,Li8Mn3Fe5(BO3)8,-2.449589775
8599,Rb2CoB12(H2O3)10,-2.131558581
8600,BaSn3,-0.462862429
8601,NaMnBO3,-2.394841277
8602,Li3FeB8O15,-2.683969419
8603,Li3MnB8O15,-2.676112285
8604,Li3FeBO4,-2.297484408
8605,Li2FeBPO7,-2.411358027
8606,Li2Fe2B2O7,-2.35786856
8607,Li3MnB6O13,-2.54444015
8608,Na4Bi2B4SO16,-2.196472778
8609,Na6Bi2B4SO16,-2.302568925
8610,Li6Bi2B4SO16,-2.325570704
8611,LiCrB3(HO3)3,-2.195143596
8612,LiMnB3(HO3)3,-2.109473017
8613,Na6Bi2B4PO16,-2.320974954
8614,Na6Sn2B4SO16,-2.459517578
8615,Na6B4Sb2SO16,-2.34646076
8616,Na6B4Sb2PO16,-2.415870337
8617,Na3VBPO7,-2.599270008
8618,Na6Cr2B4PO16,-2.424684948
8619,BaP3,-0.668700837
8620,CaMgB6H12O17,-2.230008763
8621,Na6V2B4SO16,-2.527488225
8622,Ba2Cd,-0.231992803
8623,Ba2Hg,-0.374067447
8624,BaPt5,-0.485340935
8625,BaTe3,-0.882837571
8626,LiB3H3SeO9,-2.02420902
8627,B6H10C2SBr,-0.35014327
8628,B12H21C4S2I,-0.319364949
8629,Li6Mn2B4SO16,-2.418762651
8630,LiB3P(HO3)3,-2.445357255
8631,Ca2SiB5H5O14,-2.650578905
8632,Na6V2B4PO16,-2.539363575
8633,Na6Co2B4SO16,-2.193458917
8634,Na6Cr2B4SO16,-2.411852915
8635,Na6Mn2B4PO16,-2.388240228
8636,BH6CN3F4,-1.498527746
8637,Ba2GdB2ClO6,-3.310288714
8638,Ba2YB2ClO6,-3.327729213
8639,CsNa2Be6(BO3)5,-2.904018247
8640,LiMgB3(H9N)2,-0.448874519
8641,BaHg3,-0.429035369
8642,NaSi2BH2O7,-2.552803936
8643,BaSn,-0.69766751
8644,Sr2LiSc(B2O5)2,-3.194491608
8645,BaZn,-0.16287567
8646,Rb3Ba,0.144412257
8647,RbBa3,0.1396576
8648,TbBa3,0.222297013
8649,BaSr3,0.00962152
8650,Ba3Er,0.253245755
8651,BaTl3,-0.299635536
8652,Ba3Te,-0.541755455
8653,BaTh3,0.379934815
8654,BaNd,0.235117892
8655,BaCe,0.447149785
8656,Ba2Si,-0.308225983
8657,Ba2Sb,-0.854366698
8658,Ba5Sb3,-0.995347806
8659,BaC,1.395686046
8660,Ba2V2F11,-3.465905008
8661,Ba2Mo2F11,-3.271683655
8662,Ba2W2F11,-3.174797965
8663,Ba2Ni2F11,-2.609877017
8664,BaV4O8,-2.393460068
8665,BaCr4O8,-2.017918073
8666,Ba(CoO2)4,-1.279964913
8667,BaMn4O8,-1.835959275
8668,BaSbF7,-3.183362505
8669,BaTaF7,-3.800896013
8670,BaBiF7,-2.854851329
8671,Ba(WO2)4,-1.171323517
8672,Ba(NiO2)4,-0.684527642
8673,Ba(MoO2)4,-1.691263965
8674,BaCrF7,-2.972580205
8675,BaWF7,-3.254024582
8676,BaMoF7,-3.19760049
8677,Ba(FeO2)4,-1.72244912
8678,Ba2V3O8,-2.577726659
8679,Ba2Co3O8,-1.57531731
8680,Ba2Cr3O8,-2.201220113
8681,BaCu4O7,-1.006934314
8682,Ba2Mn3O8,-2.059374905
8683,Ba2Sb3O7,-2.14799996
8684,BaCo4O7,-1.471638237
8685,BaTi4O7,-3.013733185
8686,BaBi4O7,-1.531167207
8687,BaSb4O7,-1.548558907
8688,Ba2W3O8,-2.278036698
8689,Ba2Sn3O7,-2.191630622
8690,Ba2Bi3O7,-1.973772477
8691,Ba2Ti3O7,-3.120509924
8692,BaCr4O7,-2.002013452
8693,BaFe4O7,-1.854008179
8694,BaV4O7,-2.303341037
8695,BaMn4O7,-1.858579004
8696,BaNi4O7,-0.897443209
8697,BaW4O7,-1.043208017
8698,Ba2Fe3O7,-1.915961967
8699,Ba2Co3O7,-1.703260364
8700,BaMo4O7,-1.497359899
8701,Ba2W3O7,-2.050806681
8702,Ba2V3O7,-2.40268592
8703,Ba2Ni3O8,-1.14067444
8704,Ba2Mn3O7,-2.126895285
8705,Ba2Mo3O7,-2.168243072
8706,Ba2Cr3O7,-2.155108714
8707,Ba2Ni3O7,-1.247606954
8708,Ba2Ti3O8,-3.323002027
8709,Ba(SnO2)4,-1.894817077
8710,BaTi4O8,-3.25485359
8711,Ba(SbO2)4,-1.822253685
8712,Ba(BiO2)4,-1.563610071
8713,Ba2Sb3O8,-2.262619038
8714,Ba2Bi2F11,-3.146774428
8715,Ba2Sn2F11,-3.268010209
8716,Ba2Sb2F11,-3.216982995
8717,Ba2Ti2F11,-3.860858271
8718,Ba2Cr2F11,-3.284355767
8719,Ba2Mn2F11,-3.23019955
8720,BaGaCu2,-0.214871731
8721,BaSiC,0.5890206
8722,BaBrCl,-2.604761234
8723,Ba3PN,-0.639106648
8724,Ba3BiN,-0.79497969
8725,Ba3SbN,-0.833280494
8726,Ba3BiSb,-0.622823552
8727,Ba3BiP,-0.842497252
8728,Ba3SbP,-0.264217874
8729,BaGeO3,-2.476228352
8730,BaRhO3,-1.919741657
8731,BaMnO3,-2.358665695
8732,BaVO3,-2.752161947
8733,BaRuO3,-2.131708146
8734,Ba2NF,-1.91672747
8735,BaCaO2,-2.878764048
8736,Ba2BrN,-1.281988738
8737,Ba2NCl,-1.541084861
8738,Ba2ClF3,-3.831126879
8739,Ba2H3I,-0.937222114
8740,BaMgPb,-0.007393208
8741,BaMgSn,-0.050224138
8742,Ba3Ga3N5,-0.656049233
8743,Ba2P2O7,-3.239637755
8744,BaZrO3,-3.653658988
8745,BaS4O13,-2.167770382
8746,Eu2BaO4,-3.086413191
8747,Ba2CuH6,-0.393920988
8748,BaLiF3,-3.758598654
8749,Ba2RuO4,-2.401753259
8750,BaIn2Pd,-0.583218736
8751,BaHfN2,-1.532210689
8752,Ba(CuSe)2,-0.850698085
8753,BaLiSb,-0.944201735
8754,BaLiP,-0.876806603
8755,Ba(GeRh)2,-0.746931714
8756,BaPS3,-1.573968317
8757,BaPSe3,-1.012823803
8758,BaIn2Rh,-0.475736862
8759,BaSi4Cu9,-0.19440927
8760,BaCu9Ge4,-0.14936889
8761,Ba(PIr)2,-0.834123235
8762,BaCaSn,-0.679724503
8763,BaSn3Pd,-0.640183832
8764,BaCuSb,-0.695122157
8765,BaCdGe,-0.470147355
8766,BaZnGe,-0.488190252
8767,BaSnHg,-0.577246695
8768,BaNiSn3,-0.466970898
8769,Ba2GeSe4,-1.354130873
8770,Ba(POs)2,-0.676584429
8771,BaSnS2,-1.625334751
8772,BaCuF4,-3.010843397
8773,BaBeF4,-3.950036385
8774,BaPdF4,-2.868661879
8775,BaEr2F8,-4.440262777
8776,Ba3CrN3,-0.914157014
8777,Ba(BeN)2,-1.119592644
8778,BaSiO3,-3.12344327
8779,BaTiO3,-3.503261344
8780,BaLiGe2,-0.53075951
8781,Ba3LiN,-0.311638473
8782,BaIrF6,-2.783736061
8783,Ba(ZnSn)2,-0.406019592
8784,BaGeF6,-3.42278471
8785,Ba(ZnSb)2,-0.529753509
8786,Ba4SiP4,-0.970955197
8787,Ba4GeP4,-0.918035014
8788,Ba3Tm4O9,-3.639788787
8789,Ba3Ho4O9,-3.597258193
8790,Ba2Re6S11,-1.267672961
8791,Ba2SiSe4,-1.455672427
8792,Ba2SiTe4,-1.060884601
8793,Ba(SiIr)2,-0.839166622
8794,BaMgF4,-4.011948991
8795,Ba3WN4,-1.093566707
8796,Ba(Ni5P3)2,-0.638205502
8797,Ba(Cu2P)4,-0.285054922
8798,Ba3Er4O9,-3.614202084
8799,Ba4Zr3S10,-2.220011988
8800,Ba3Ta5O15,-3.453818818
8801,Ba6Cu11F34,-2.666236832
8802,Ba4TiP4,-1.070157066
8803,Ba2LiSi3,-0.427008108
8804,Ba3Y4O9,-3.551724906
8805,Ba4Ti12O27,-3.521661072
8806,BaCaGe,-0.583542154
8807,BaCaSi,-0.417822093
8808,BaCuP,-0.729193696
8809,Ba6Ga5N,-0.471891946
8810,Ba2CdSe3,-1.573565975
8811,Ba2CdTe3,-1.327462122
8812,Ba2MnTe3,-1.247523964
8813,Ba3Te2O9,-2.402390534
8814,Ba2NbN3,-1.16491725
8815,Ba4Ir3O10,-2.150028455
8816,BaGd2O4,-3.613327637
8817,Tb2BaTe4,-1.548967812
8818,Ba(HoTe2)2,-1.534693021
8819,Ba4Ru3O10,-2.302059959
8820,BaHo2O4,-3.714257029
8821,Ba2TaN3,-1.26396497
8822,BaPr2O4,-3.492218339
8823,Ba2LiGe3,-0.562193588
8824,Ba(ScTe2)2,-1.402115602
8825,Ba2SiO4,-3.375158701
8826,Ba2VN3,-1.226838584
8827,Ba(SmTe2)2,-1.553970553
8828,Ba3GeO,-1.44219932
8829,Ba(YTe2)2,-1.558320137
8830,Ba2Ge2Te5,-0.852251565
8831,Ba2TiS4,-2.193056736
8832,Ba2ZnO3,-2.542876658
8833,Ba(DyTe2)2,-1.543162676
8834,Ba(ErTe2)2,-1.526224745
8835,BaSm2O4,-3.58985532
8836,Ba2HgS3,-1.782424123
8837,BaSbF5,-3.393849856
8838,Ba(TmTe2)2,-1.515182915
8839,Ba3NaSi23,-0.1034307
8840,Tb2BaO4,-3.680761368
8841,BaSbTe3,-0.783961237
8842,Ba3(GaN2)2,-0.659862691
8843,Ba2CdS3,-1.93958419
8844,Ba2Tl2O5,-1.977947322
8845,Ba2Ge2Se5,-1.125098359
8846,Ba2Ga2S5,-1.759299873
8847,Ba2MnS3,-1.945569654
8848,Ba2MnSe3,-1.537354541
8849,Ba6Mg7F26,-3.994267982
8850,Ba(SiRh)2,-0.873040777
8851,Ba4Mn3O10,-2.552263703
8852,Ba3W2O9,-2.807947727
8853,BaV6O11,-2.620981943
8854,BaV4O9,-2.658562449
8855,Ba3Cr2O8,-2.605194568
8856,BaV2O6,-2.707214049
8857,BaNiO2,-1.802223237
8858,BaFeO3,-2.253844513
8859,BaWO4,-2.731492457
8860,Ba5V5O14,-2.831137109
8861,Ba2VO4,-2.939157011
8862,BaNiO3,-1.740736381
8863,Ba(FeO2)2,-2.2399517
8864,Ba3Mn2O8,-2.432801421
8865,Ba3CrO5,-2.755918338
8866,BaCrO3,-2.535189666
8867,Ba3V2O8,-3.031361406
8868,BaV10O15,-2.536591043
8869,Ba2V2O7,-2.935366287
8870,BaCr10O15,-2.323885073
8871,Ba2CoO4,-2.373333239
8872,BaCrO4,-2.481640784
8873,Ba2CrO4,-2.736395788
8874,Ba2Nb5O9,-2.886497499
8875,BaPbF6,-3.054923537
8876,BaCoS2,-1.451553132
8877,Ba(MnP)2,-0.759776882
8878,Ba3(InP2)2,-0.796575411
8879,Ba2PbO4,-2.385308395
8880,TbBaO3,-3.139855365
8881,Ba3In2O6,-2.521992257
8882,Ba(MgPb)2,-0.382882786
8883,BaPbO3,-2.126824211
8884,Ba2In2O5,-2.44377003
8885,BaMnGe,-0.229397062
8886,BaIn2Pt,-0.643545195
8887,Ba(InTe2)2,-0.787129589
8888,BaPPt,-1.085236912
8889,BaNiN,-0.589353301
8890,Ba(InSe2)2,-1.046038839
8891,Ba(InS2)2,-1.470791627
8892,BaGePt,-0.900238476
8893,BaGe3Pt,-0.637716177
8894,Ba(MnGe)2,-0.233968305
8895,Ba(MnSn)2,-0.127816305
8896,BaPrO3,-2.995273865
8897,BaFe2S3,-1.3115875
8898,BaIn2Ir,-0.376933046
8899,Ba2In2S5,-1.683921898
8900,BaBiO3,-2.248730787
8901,BaIF,-3.02968414
8902,Ba4Cl6O,-2.982350253
8903,BaBrF,-3.25540887
8904,BaZnCl4,-2.25122283
8905,BaClF,-3.603244936
8906,Ba7(ClF6)2,-3.997676874
8907,BaLiH3,-0.593847021
8908,BaHCl,-1.817563296
8909,BaHI,-1.264238015
8910,BaH4O3,-1.861288254
8911,BaHBr,-1.476477673
8912,Ba5Co5O14,-2.103723188
8913,Ba3WO6,-2.812667609
8914,Ba2(CuO2)3,-1.733802358
8915,Ba(TeO3)2,-2.012753107
8916,BaVSe3,-1.199902517
8917,BaBiSe3,-1.035165601
8918,Ba(SiNi)2,-0.554365981
8919,BaCu4S3,-0.891619469
8920,BaLi2Si,-0.272409372
8921,Ba(PO3)2,-2.997576931
8922,Ba6Fe8S15,-1.394964967
8923,BaTeS3,-1.287554973
8924,BaU2O7,-3.651274012
8925,Ba(FeS2)2,-1.243620688
8926,BaTi5O11,-3.529307579
8927,BaSn2S3,-1.342825856
8928,Ba3SiS5,-2.09535781
8929,Ba(GeP)2,-0.506531638
8930,Ba2PCl,-1.811137605
8931,Ba3(Si2P3)2,-0.66056984
8932,Ba(NO2)2,-1.593732284
8933,BaHgS2,-1.487489568
8934,Ba(BiS2)2,-1.265196994
8935,Ba(SbS2)2,-1.216399779
8936,BaNb2O6,-3.230417674
8937,Ba4P2O,-1.510250824
8938,Ba4Sb4Se11,-1.034907966