id,Composition,FormationEnergy
29242,RbMnF4,-2.965442648
29243,SNF,-0.828356724
29244,NiRhF6,-1.938032743
29245,K3Mn2F7,-3.030251474
29246,Na5Fe3F14,-2.899781699
29247,RbFeF3,-2.604299984
29248,NaMnF4,-2.926211906
29249,Rb2In3F11,-2.945705023
29250,Na3NiF6,-2.566518671
29251,Rb2MnF5,-2.991903669
29252,KMnF3,-3.041711266
29253,Rb2FeF5,-2.981212423
29254,TcO3F,-1.947725264
29255,Na2MnF5,-2.95374061
29256,ReO2F3,-2.421173106
29257,K2FeF5,-2.990700218
29258,NaFeF4,-2.895505626
29259,GeXeF10,-1.599158627
29260,Li2MnF5,-3.012627003
29261,Tc2O5F4,-2.088672862
29262,K2NiF4,-2.673274346
29263,RbFeF4,-2.911923049
29264,KZrF5,-3.828890333
29265,KFeF3,-2.622115758
29266,NaFeF3,-2.840612293
29267,K2MnF6,-2.908062463
29268,LiFe2F6,-2.871426212
29269,LiMnF4,-2.950092335
29270,NaMn3F10,-2.84364533
29271,Rb2MnF6,-2.916069038
29272,KMnF4,-2.969940396
29273,KFeF4,-2.943562174
29274,Na5Mn3F14,-2.9321119
29275,Li2MnF6,-2.846577037
29276,TeOF2,-2.135774012
29277,K2MnF4,-3.02013224
29278,Li3VF6,-3.22422368
29279,WN3F5,-1.733903937
29280,K3Fe5F15,-2.847154053
29281,RbMnF3,-3.038176896
29282,Ni(NF7)2,-1.005947614
29283,NaNp3F13,-3.678349577
29284,LiV2F6,-3.158588805
29285,Rb3MnF7,-2.906650199
29286,NaMnF3,-2.991515318
29287,Na3FeF6,-2.967713635
29288,K3Ni2F7,-2.616969637
29289,Li3ScF6,-3.630361961
29290,ReSF4,-2.124262796
29291,KNiF3,-2.535884444
29292,Na3MnF6,-2.954718437
29293,K4Mn3F12,-3.004113792
29294,NaNiF3,-2.493695561
29295,P2O2F3,-2.525573175
29296,VOF3,-2.732528481
29297,ReO3F,-2.205639769
29298,RuOF4,-1.811183085
29299,ReOF4,-2.457505619
29300,KH4F5,-2.145945186
29301,HOF,-0.825163661
29302,RuXeF11,-1.38732852
29303,Rb3NiF7,-2.442815272
29304,Ni(XeF8)2,-0.978315595
29305,InPF3,-1.651427567
29306,Pt4(O3F8)3,-1.091010936
29307,PtXeF11,-1.151080813
29308,Nb20(O13F7)3,-3.108655893
29309,Ti14O7F60,-3.067795597
29310,TlOF,-1.551354791
29311,KSn2F5,-2.727749577
29312,K3FeF3,-2.032413238
29313,Rb3FeF3,-2.00774171
29314,Mo5(O4F)3,-2.190861663
29315,NaFe8F24,-2.814510248
29316,HNF2,-0.435509556
29317,Zr2Fe2F3,-1.348285293
29318,NbOF2,-3.002833368
29319,TiOF,-3.409810771
29320,Sn3(OF)2,-2.01058719
29321,Nb3O7F,-3.071323047
29322,Nb2O3F2,-3.047364913
29323,GdOF,-4.196459092
29324,NbOF3,-3.280336815
29325,Nb5OF14,-3.007580528
29326,Nb2OF8,-3.335762415
29327,Mg2NF,-2.010980482
29328,RbLiF2,-3.032483791
29329,Nb5O12F,-3.037139721
29330,LiSbF4,-2.799337526
29331,Sn9(O2F5)2,-2.172688276
29332,Sn13(O5F3)2,-1.897379708
29333,Nb3O2F5,-2.89875187
29334,Li2TiF6,-3.550204385
29335,LiNbF5,-3.219807617
29336,Rb3YF6,-3.507972848
29337,Mn6O7F5,-2.2271039
29338,LiVF5,-3.104397952
29339,Li3VF5,-3.052757943
29340,Li2VF7,-2.965534944
29341,Li4VF7,-3.132376888
29342,LiMnF3,-3.033052062
29343,LiMn2F5,-2.982881776
29344,Mn3(OF2)2,-2.543920068
29345,Li4Mn3F10,-3.039892093
29346,Li3Mn4F15,-2.854529595
29347,VO2F,-2.443734536
29348,Mn2O3F,-2.045223937
29349,Li2MnF4,-3.053432274
29350,Mn2OF3,-2.64926971
29351,Li3MnF5,-3.070403809
29352,Mn6O5F7,-2.416992205
29353,V3(O2F)2,-2.701500917
29354,MnOF,-2.352119101
29355,V2OF5,-3.036956661
29356,Mn3O5F,-1.95321374
29357,LiMn2F7,-2.861099591
29358,Li2Mn3F8,-2.991550032
29359,Mn3OF5,-2.745837902
29360,V4(OF3)3,-2.9660804
29361,VOF,-2.809527751
29362,LiMn2F9,-2.499827271
29363,Mn12O5F19,-2.671580779
29364,Mn6OF11,-2.861615549
29365,V2(OF)3,-2.670688007
29366,Mn3(O2F)2,-2.149424126
29367,V6O7F5,-2.752960444
29368,V3O5F,-2.573747336
29369,Ni3OF5,-1.814762421
29370,Mn8O13F3,-1.963854254
29371,V6O5F19,-2.758536967
29372,V3OF11,-2.909766042
29373,Li3Mn2F7,-3.02981412
29374,V4O7F5,-2.539353705
29375,Li3MnF6,-2.952852793
29376,LiWF6,-2.919751675
29377,Li2VF6,-3.147471523
29378,LiV3F10,-3.135908908
29379,Li4MnF7,-3.00849464
29380,LiMn2F6,-2.897886549
29381,Li2Mn2F7,-2.953386204
29382,Mn3O2F5,-2.492521761
29383,Li5Mn3F14,-2.938959417
29384,Li3Mn5F15,-2.931373228
29385,V3O7F,-2.317996106
29386,Mn3OF6,-2.63399017
29387,V6O5F8,-2.839437968
29388,V6O11F,-2.511747754
29389,VOF2,-2.86410611
29390,V4O5F7,-2.730716508
29391,V2O3F,-2.670059673
29392,Mn12O7F17,-2.553134921
29393,V4OF11,-3.139712862
29394,Ni6OF11,-1.968725204
29395,Mn12O17F7,-2.084856765
29396,Li2VF4,-3.012866218
29397,Mn4OF6,-2.782015627
29398,V2O3F2,-2.65852085
29399,V2OF7,-2.78924428
29400,V3OF7,-3.025441591
29401,Mn2OF4,-2.534114142
29402,Mn2OF2,-2.522988245
29403,Li3Mn2F9,-2.911130645
29404,LiMnF6,-2.371246756
29405,V3(OF)4,-2.669822611
29406,V3(OF3)2,-2.967834798
29407,V2O2F3,-2.814431465
29408,LiMnF5,-2.616599679
29409,V2OF4,-2.966612156
29410,LiFeF3,-2.893462984
29411,LiVF4,-3.209346282
29412,LiNiF3,-2.537750228
29413,Mn3OF8,-2.551394556
29414,Mn4O3F5,-2.501976461
29415,Li3MnF7,-2.869870538
29416,LiVF3,-3.055754807
29417,Li6MnF8,-3.073772568
29418,Li14Mn5F24,-3.041265698
29419,Li2Mn5F17,-2.778052161
29420,V7(O2F3)3,-2.835895573
29421,V3O2F5,-2.90858736
29422,LiVF6,-2.965583739
29423,LiV2F7,-3.165381307
29424,LiMn8F33,-2.428370176
29425,Li3VF7,-3.114690921
29426,Li2VF5,-3.176393145
29427,Li4MnF8,-2.874751146
29428,Li4VF8,-3.080893733
29429,Li3V2F12,-3.055465206
29430,LiV6F13,-2.935356542
29431,Li5VF8,-3.120440236
29432,LiV5F11,-2.947709009
29433,Li11V4F24,-3.1946328
29434,LiV2F5,-2.98394892
29435,V3O5F3,-2.579792499
29436,Mn6O11F,-1.859828692
29437,Mn4O7F,-1.899829971
29438,Li2V2F7,-3.06271845
29439,Li6VF8,-3.088760754
29440,Li2RhF6,-2.49511776
29441,Li5MnF8,-3.040092234
29442,Mn5O9F,-1.859902673
29443,Mn2O2F3,-2.281585369
29444,Mn5O7F,-2.035598451
29445,Li3VF8,-2.956848422
29446,LiMn3F10,-2.798754846
29447,Mn4OF8,-2.716363558
29448,Mn5OF11,-2.736035741
29449,Mn7O7F,-2.052175873
29450,Mn5O3F5,-2.490304248
29451,Fe3(OF2)2,-2.358140775
29452,LiV8F33,-3.003174908
29453,K2ReF6,-2.792606717
29454,KOsF6,-2.500497229
29455,KRuF6,-2.4608183
29456,RbRuF6,-2.473793737
29457,ZnPtF6,-2.049676868
29458,Li2FeF4,-2.964240717
29459,LiFeF4,-2.856538196
29460,Li3Fe4F19,-2.407156726
29461,Li4MnF6,-3.093583868
29462,Li5Fe3F14,-2.938909706
29463,Li2Fe5F17,-2.780301886
29464,S(OF)2,-2.13078988
29465,Li4V2F9,-3.137770788
29466,Na3ZrF8,-3.226464334
29467,Li4VF6,-3.076014889
29468,Mn7(OF3)3,-2.619714657
29469,Mn5(OF3)2,-2.58977839
29470,RbPd2F5,-1.907088147
29471,ZrPdF6,-3.040119787
29472,RbPdF3,-2.138273532
29473,LiPF6,-3.061103522
29474,K2ZnF4,-2.883111872
29475,Li2NbF6,-3.249916613
29476,Na2NbF6,-3.218475349
29477,Li2RuF6,-2.611853292
29478,RbSbF6,-2.931630133
29479,SrRhF6,-2.76784013
29480,MgRhF6,-2.590356193
29481,TlNiF3,-2.073127154
29482,MnTlF3,-2.618374356
29483,ZnNiF5,-2.077287499
29484,ZnNiF6,-1.892414617
29485,ZnFeF6,-2.406731157
29486,MgFeF6,-2.825485038
29487,MgNiF6,-2.347871043
29488,MgNiF5,-2.609896955
29489,YFe3F15,-2.545690081
29490,Ta2N3F,-1.194059044
29491,Sb9Se4F39,-2.497086586
29492,PHF2,-1.72064774
29493,H5N2F,-0.826673026
29494,SeOF2,-1.78966375
29495,H8NF5,-1.613546704
29496,Sb7Se8F35,-2.283540423
29497,KMgF3,-3.568732665
29498,WOF4,-2.68240778
29499,Sb3O2F5,-2.424088639
29500,Sb(OF3)2,-1.492028889
29501,SbOF,-2.219606202
29502,KZnF3,-2.834692896
29503,SbSe5F6,-1.453973322
29504,FeOF,-2.212517136
29505,SbO2F,-2.006885098
29506,Sb6O5F8,-2.258093813
29507,Sb4O5F2,-1.989623893
29508,Sb3O7F,-1.817904193
29509,Sb3O4F,-1.915410895
29510,SbOF3,-2.355603057
29511,Sb5O7F,-1.79259422
29512,Sb2OF8,-2.44735141
29513,Sb7(O2F3)3,-2.254512709
29514,Sb8O11F2,-1.820688529
29515,Fe4O5F3,-2.017640641
29516,Fe3OF5,-2.537146945
29517,Fe5(OF2)4,-2.280155626
29518,Fe2O3F,-1.842768647
29519,Fe4O3F5,-2.305975729
29520,Fe2OF3,-2.452289793
29521,Fe4OF7,-2.577001946
29522,Fe4O7F,-1.635462247
29523,W7(OF5)6,-2.69868721
29524,W(OF)2,-2.488842799
29525,W2OF8,-2.646755241
29526,Fe3(OF)2,-2.049220991
29527,W3O7F,-2.147391978
29528,WO2F,-2.314513103
29529,FeO2F,-1.6544907
29530,W5(O2F11)2,-2.708979767
29531,WOF3,-2.480652387
29532,Fe4OF6,-2.475285346
29533,Li2Mn7F16,-2.943368053
29534,Li2Mn7F18,-2.900549225
29535,Li2Mn3F10,-2.876101101
29536,MnOF2,-2.306064968
29537,Mn3(OF)2,-2.349274888
29538,Mn5O5F,-2.095575402
29539,W5O12F,-2.113626206
29540,Mn3(OF3)2,-2.445617593
29541,LiV2F9,-3.031593941
29542,Li3V2F9,-3.17622377
29543,NiOF2,-1.551496801
29544,Fe10O11F9,-2.1366084
29545,Fe6O5F7,-2.265611902
29546,Fe7O3F13,-2.441742828
29547,Fe3OF7,-2.527775719
29548,Fe5O7F3,-1.906964042
29549,Fe5(OF4)2,-2.490995156
29550,Fe4OF8,-2.553362718
29551,Fe5O3F7,-2.347730244
29552,Fe10OF19,-2.677775345
29553,Fe10O19F,-1.523750178
29554,Fe5(O4F)2,-1.729829917
29555,Li3Fe2F9,-2.897653192
29556,LiFe2F9,-2.350772232
29557,Li2FeF6,-2.700662497
29558,Li3FeF6,-3.050493568
29559,Li2Fe3F8,-2.794230842
29560,Li3FeF5,-2.931543985
29561,Li5FeF8,-3.044656303
29562,LiFe2F7,-2.857060579
29563,Li3Fe2F7,-2.900387496
29564,Li2FeF5,-2.915977486
29565,LiFeF5,-2.437931432
29566,Li11Fe6F29,-2.907634689
29567,LiFe2F5,-2.690406691
29568,Li3V4F19,-3.026450868
29569,Fe2O2F3,-2.13610501
29570,Fe7(OF7)2,-2.556088512
29571,Li3Mn4F19,-2.602520253
29572,Fe6O11F,-1.572500748
29573,Li2V3F8,-2.971244684
29574,Li4FeF8,-2.772189324
29575,Li10Mn3F16,-3.071050324
29576,Fe3O5F,-1.690808459
29577,Fe3(OF3)2,-2.334697779
29578,Fe6O7F5,-2.086312753
29579,Fe6OF11,-2.5034849
29580,Fe6O7F6,-2.052459213
29581,Fe3(O2F)2,-1.964392756
29582,Li5V3F14,-3.179694569
29583,V4O3F5,-2.82868596
29584,K2RhF6,-2.511000766
29585,Rb3PdF5,-2.519326647
29586,Fe10O9F11,-2.246240342
29587,SnPO4F,-2.551857857
29588,SnPOF7,-2.786518797
29589,Na2MgInF7,-3.215531683
29590,K2TeOF4,-2.626987688
29591,Na2PO3F,-2.72704655
29592,SbS2NF6,-1.980175007
29593,KRb2GaF6,-3.090758039
29594,ScTeO3F,-2.857693966
29595,K2NaTlF6,-2.721550604
29596,K2NaYF6,-3.579768316
29597,Rb2NaYF6,-3.597590662
29598,Na3Li3Sc2F12,-3.606893964
29599,KRb2RhF6,-2.649236735
29600,NaTl2RhF6,-2.232673223
29601,Rb2NaRhF6,-2.66180253
29602,K2NaRhF6,-2.65988391
29603,K2RbPdF5,-2.540494322
29604,Na3Li3Ti2F12,-3.340862864
29605,Y3Si3O10F,-3.718842533
29606,Rb2LiGaF6,-3.110914062
29607,KZrPdF7,-3.093690269
29608,NaZr2TiF11,-3.758234974
29609,NaZr2ZnF11,-3.659098198
29610,Rb2NaHoF6,-3.619774087
29611,Na2ZnGaF7,-2.92557416
29612,Rb2NaTiF6,-3.333903037
29613,Ho3Si3O10F,-3.743035175
29614,NaZr2PdF11,-3.40890371
29615,GdSO4F,-3.076290771
29616,Sr2SnSe3F2,-2.228876194
29617,Rb2Zr3OF12,-3.881535449
29618,Rb2Hf3OF12,-3.987240802
29619,Zr3Tl2OF12,-3.633355752
29620,KHfPdF7,-3.165128983
29621,Sr2SnS3F2,-2.540221029
29622,YSO4F,-3.096427668
29623,K2Zr3OF12,-3.885838184
29624,NbSeOF7,-2.757847887
29625,Zn2Hg2OF6,-2.055882293
29626,NpPO4F,-3.220957879
29627,Na3Mo(OF)3,-2.619134973
29628,Mn2PO4F,-2.674431794
29629,K2VO2F3,-2.821869065
29630,NaV(OF)2,-2.718186157
29631,Sr2FeO3F,-2.964463274
29632,P3Pb5O12F,-2.394019512
29633,XeN2(OF4)2,-0.897388661
29634,SIO3F,-1.623601957
29635,RbH2OF,-2.001997717
29636,HgHOF,-1.38543272
29637,TiH12(NF2)4,-1.654096213
29638,GaH4NF4,-1.877109346
29639,SnH8(NF3)2,-1.684268952
29640,H3SO4F,-1.755000149
29641,ZrH3NF4,-2.532787405
29642,TiH8N2F5,-1.778726413
29643,TiPO4F,-3.1824199
29644,FePO4F,-2.276080923
29645,MnPO4F,-2.341553343
29646,NiPO4F,-1.748717203
29647,VPO4F,-2.714377171
29648,PWO4F,-2.551573205
29649,InTeO3F,-2.006314497
29650,Ni2Hg2OF6,-1.802583348
29651,Fe2PO4F,-2.483003455
29652,Rb5Nb3OF18,-3.389884467
29653,Zr3Pb(O2F3)2,-3.685371498
29654,Na2W(OF2)2,-2.764815996
29655,ReSbOF9,-2.535268849
29656,LaSiO3F,-3.801151767
29657,Sn3PO4F3,-2.430182986
29658,Na3SO4F,-2.135598438
29659,KNb4O5F,-2.621734557
29660,YbSeO3F,-2.361243502
29661,LiRe(OF2)2,-2.634343135
29662,NaHf2VF11,-3.846815883
29663,Pr2SbO5F,-3.255335479
29664,KRb2MoF6,-3.017261776
29665,TcXeO4F5,-1.166943334
29666,ReSbOF10,-2.559482738
29667,Na2MnGaF7,-3.01865388
29668,SnS2(O3F)2,-2.07770392
29669,SbP(OF3)2,-2.701133231
29670,NaZr2NiF11,-3.56013781
29671,KXeO3F,-0.43965888
29672,KTe3O6F,-1.7934413
29673,KZrVF7,-3.589847495
29674,SbXe2OF15,-1.301137222
29675,SbTe(IF2)3,-1.803927638
29676,NaI(OF)2,-1.83949937
29677,Te3I(OF5)3,-2.116466049
29678,LiMnFeF6,-2.95734421
29679,LuSeO3F,-2.838649397
29680,TcSb(OF4)2,-2.424735591
29681,KNaSnF6,-3.043871141
29682,Ta9Pb12O20F29,-3.055743657
29683,Rb5H5(OF3)2,-2.31930205
29684,SiHg3(SF3)2,-2.124398021
29685,SbSNF5,-2.041659381
29686,NaNb(OF)2,-3.17334483
29687,SbS7IF6,-1.574186497
29688,S5N2(O2F)4,-1.606497597
29689,Te2S(O2F3)2,-2.208236872
29690,KRb2NiF6,-2.562830588
29691,KRe2O4F7,-2.5721448
29692,S4N2O3F,-1.115098696
29693,SnPO3F,-2.520599324
29694,LaSeO3F,-2.83683737
29695,NaTl2MoF6,-2.609573952
29696,P4S(NF)6,-1.52956742
29697,NaZr2FeF11,-3.688214828
29698,YSeO3F,-2.813478804
29699,SrSbSe2F,-1.805030042
29700,KLiYF5,-3.814202199
29701,Xe2NO2F13,-0.88100538
29702,Rb2NaNiF6,-2.573298183
29703,Rb2NaMn3F12,-2.959241626
29704,K2NaMoF6,-3.024686052
29705,S4N3O2F,-0.798867168
29706,K2TiOF4,-3.439598756
29707,KZrSnF7,-3.466884892
29708,LiTiMnF6,-3.31912451
29709,KNaThF6,-3.906481314
29710,K2NaNiF6,-2.582090108
29711,Te6Mo(OF5)6,-2.261905327
29712,Mn2Hg2SF6,-2.243392779
29713,KNaSiF6,-3.419682627
29714,RbSO4F,-1.887845416
29715,K3SO4F,-2.514231259
29716,Te2Xe(OF5)2,-1.946784896
29717,KTeO2F,-2.109969653
29718,Na2InNiF7,-2.746432186
29719,KRb2VF6,-3.178055258
29720,TmSeO3F,-2.843047027
29721,Pb2S(O2F)2,-2.26880346
29722,NaNbO2F,-2.75800675
29723,Sb2TeSeF10,-2.347821034
29724,K5Li2NdF10,-3.35765703
29725,SbXeO2F7,-1.446158069
29726,Na3Li3V2F12,-3.197295999
29727,K5U2O4F9,-3.468130129
29728,SbI(OF4)2,-1.975291001
29729,SbSe(IF2)3,-1.733952075
29730,Rb2NaMnF6,-3.007003595
29731,Sb2SeI2F11,-2.186439644
29732,Rb2NaFeF6,-3.020501722
29733,RbP(OF)2,-2.903074598
29734,K2RbMn2F7,-3.028048098
29735,K4SnSb2F14,-2.963367323
29736,P2Pb(XeF6)3,-2.141569385
29737,NaZr2VF11,-3.74866448
29738,Mg3Si(O2F)2,-3.436886644
29739,K2P2O5F2,-2.817049947
29740,HoSeO3F,-2.835198956
29741,ReSb(OF4)2,-2.529549321
29742,NaLiY2F8,-4.019150298
29743,K2NaFeF6,-3.023023507
29744,Na3Li4Th6F31,-4.072107945
29745,Na2FeNiF7,-2.720572427
29746,KI(OF)2,-1.88233795
29747,LiMnGaF6,-3.052879737
29748,GaTeO3F,-2.078925551
29749,SbSe6IF6,-1.390203855
29750,KP(OF)2,-2.898287189
29751,IN2O4F5,-1.357784431
29752,Mg7Si8(O11F)2,-3.306535483
29753,Ni2Hg2SF6,-1.768572864
29754,OsXe(O2F3)2,-1.128544265
29755,P6Pb3Xe11F58,-2.038057577
29756,La5Sb4(O4F)3,-3.208165553
29757,Gd3Se4O12F,-2.467808408
29758,HgSb3XeF17,-2.41497682
29759,PS3N5F2,-0.581493122
29760,Yb4Ge3(O3F2)3,-2.857292063
29761,K3NpO2F5,-3.280865597
29762,SrLiNiF6,-2.950608965
29763,KTeOF3,-2.524443253
29764,UTe6(OF5)6,-2.43332562
29765,SbSO2F5,-2.350528505
29766,Na2ZnFeF7,-2.852780385
29767,H6NO2F,-1.089825616
29768,Pr4Se3(O5F3)2,-2.998321049
29769,SbPOF8,-2.756715288
29770,SrP2(XeF6)3,-2.338258077
29771,P3S3N6F5,-1.266246809
29772,Sb2SNF11,-2.272373066
29773,Rb2Sb2OF10,-2.855910397
29774,Rb2NaVF6,-3.110645937
29775,Yb2NaLiF8,-3.296707493
29776,KTl2MoF6,-2.588428974
29777,Rb2NaMoF6,-3.035127575
29778,Li2Ta2(OF2)3,-3.497256521
29779,KRb2FeF6,-3.007439807
29780,SXeO3F2,-1.431524984
29781,Ho3Se4O12F,-2.498622798
29782,Sb2POF13,-2.708123897
29783,USb3O2F17,-2.865456089
29784,Na3NbOF6,-3.197960587
29785,Na3Li3Fe2F12,-3.026866577
29786,NaZr2MnF11,-3.745581018
29787,TcSO6F,-1.896774465
29788,Hg2PO3F,-1.905974219
29789,ZnSb2(XeF4)6,-1.664217448
29790,NaSrFeF6,-3.365414007
29791,V2Ge(O2F)2,-2.639325363
29792,Na2GaNiF7,-2.796368802
29793,RbZrMnF7,-3.595263086
29794,Nb15MoO40F,-2.980884805
29795,WXeOF6,-2.060161711
29796,Na3WO4F,-2.384351981
29797,Mn3Si(O2F)2,-2.737712108
29798,SmMoO4F,-3.045550446
29799,RbVOF3,-2.990816065
29800,GdMoO4F,-3.026401002
29801,Te4W(OF4)5,-2.270731121
29802,FeTeO3F,-1.94097438
29803,HoMoO4F,-3.065328385
29804,YMoO4F,-3.045857612
29805,V2Te2O7F2,-2.137719258
29806,TbMoO4F,-3.064157814
29807,KVOF4,-2.958734722
29808,ZrMnTlF7,-3.37430365
29809,SrLiFeF6,-3.394421484
29810,SbMoOF9,-2.600091494
29811,Na2VOF4,-2.979767042
29812,SbXeOF9,-1.57566373
29813,Te4Mo(OF4)5,-2.259445624
29814,K2NaScF6,-3.594166801
29815,KRb2TiF6,-3.318480181
29816,Mg2PO4F,-3.241554217
29817,Rb2PO3F,-2.777773351
29818,Rb2LiFeF6,-3.029940298
29819,Y6Pb8OF32,-3.543489246
29820,ReN2(OF4)2,-1.779157434
29821,K5Nb4O12F,-2.890669697
29822,K3TiO4F3,-2.647998306
29823,RbSO2F,-2.337820768
29824,Sb2Te(SeF5)2,-2.199696318
29825,PHSF2,-1.669002396
29826,SiH6(NF2)2,-1.80446426
29827,VH6(OF)3,-0.940226353
29828,SbH3OF6,-2.228008251
29829,GaH3NF3,-1.84087685
29830,HSO3F,-1.267872769
29831,SnH4(NF)2,-1.235547361
29832,K2PO3F,-2.79183291
29833,KNOF2,-1.750610127
29834,Te7OsO5F32,-2.116061966
29835,ReTe7O7F32,-2.255782892
29836,ReTe5O6F25,-2.244180571
29837,KRb2ScF6,-3.593901111
29838,Se5SO3F,-1.020831288
29839,Sr3GaO4F,-3.130401773
29840,Gd13Ge6O31F,-3.355411405
29841,Na3Li3In2F12,-3.040042955
29842,KSO2F,-2.334841115
29843,SbTe(SeF3)2,-1.746783378
29844,K2Ta2(OF2)3,-3.507480149
29845,Sr5P3O12F,-3.450287031
29846,ReN(OF2)3,-1.950820337
29847,K2NaInF6,-3.020611841
29848,K3UO2F5,-3.432007001
29849,SbSNF6,-2.03102996
29850,TiH12N3F7,-1.238283274
29851,TmMoO4F,-3.071159273
29852,KH(IF6)2,-2.158889176
29853,GeH10(N2F3)2,-1.341717995
29854,TiH8(NF3)2,-1.935549189
29855,K3SnHF8,-2.918835924
29856,SbH2(NF2)3,-1.27098848
29857,MgH8(NF2)2,-1.681019622
29858,ScH8(NF2)3,-1.470965336
29859,PHOF2,-2.200563945
29860,KRb2YF6,-3.608933274
29861,Sr5V3O12F,-3.160845295
29862,H4NOF,-1.087062464
29863,ZrH6O3F4,-2.333240423
29864,ZnH8(O2F)2,-1.63124504
29865,KH8O4F,-1.605301575
29866,SiH14(O2F3)2,-1.686540207
29867,GeH12(NF2)4,-1.433232685
29868,TiH14(OF)6,-1.087595405
29869,SiH10(O2F3)2,-2.019544703
29870,PH3NF5,-2.105671618
29871,InH5(NF)2,-1.222834856
29872,MnH6(OF)3,-1.827079095
29873,Mn3H24(O3F2)4,-1.724619855
29874,TiH10N3F5,-1.256477732
29875,Fe3H4(OF4)2,-2.27591671
29876,FeH12(NF2)3,-1.420701892
29877,ZrH8(NF3)2,-1.795574011
29878,PH2NF2,-1.493652801
29879,Li2NbOF5,-3.278548102
29880,LiTiO4F3,-2.428799747
29881,Sr3Ta4(O6F)2,-3.600161107
29882,P2HNF4,-1.943472152
29883,GaH5(NF)2,-1.184139796
29884,SiH8(NF3)2,-1.887439985
29885,GaH7(NF2)2,-1.537394702
29886,LiFe2OF3,-2.379307219
29887,Fe2H4O2F5,-2.124724732
29888,Li2VO2F,-2.629309349
29889,LiFe2OF5,-2.617909918
29890,Li4FeOF5,-2.864588816
29891,Li3V2(O2F)2,-2.658881715
29892,LiMn5O3F5,-2.507655664
29893,Li5MnO3F,-2.206372408
29894,Li8Mn(O2F)2,-2.292084573
29895,LiMn2OF3,-2.689949306
29896,Li2Mn3OF6,-2.812834315
29897,Li3Mn8(OF3)4,-2.694012143
29898,Li6Mn(OF2)2,-2.638088455
29899,Li2Mn2OF4,-2.756532387
29900,Li4Mn7(OF7)2,-2.821956261
29901,LiMnOF2,-2.617010867
29902,LiMn3OF8,-2.689981283
29903,LiMn2O2F3,-2.539702079
29904,Li2Mn4O5F3,-2.378572377
29905,Li3VO3F2,-2.669227475
29906,Li3V2OF7,-3.089635214
29907,Li2VO3F,-2.560940929
29908,LiVOF4,-2.846300877
29909,LiVOF3,-2.916619797
29910,Li2V3O3F5,-2.884765466
29911,Li2VOF5,-2.930941219
29912,LiV2OF7,-2.952674982
29913,Li3V4O11F,-2.378164608
29914,Li7VO5F,-2.371365387
29915,LiV3(OF2)4,-2.66027826
29916,Li5VO4F,-2.462604146
29917,Li2V(OF)2,-2.794609429
29918,LiV2OF5,-3.053430645
29919,Li4VO4F,-2.581849435
29920,Li2V2O5F2,-2.557792386
29921,LiV(OF)2,-2.703165878
29922,Li2MnO2F,-2.456314285
29923,LiMn2OF5,-2.725182036
29924,LiV3OF11,-2.966977391
29925,Li2VOF4,-3.040895342
29926,LiMn3OF5,-2.759694159
29927,LiNiOF2,-2.040812462
29928,Li5MnOF5,-2.921742465
29929,Li7Mn(OF)3,-2.433727239
29930,LiMn5O5F,-2.10689224
29931,Li6MnO3F2,-2.325426645
29932,Li4Mn3OF8,-2.869582565
29933,Li3MnO2F,-2.265758459
29934,Li3Mn3OF7,-2.865776168
29935,Li2Mn4OF8,-2.827453647
29936,Li6Mn11(OF12)2,-2.87372142
29937,Li3Mn5OF11,-2.89536084
29938,LiMn7(OF3)3,-2.653229558
29939,Li7Ni(O2F)2,-2.093926213
29940,Li3Fe10O7F9,-2.240456527
29941,Li4Fe7(OF7)2,-2.647721133
29942,Li8Fe(O2F)2,-2.262454617
29943,Li2Fe7(OF2)4,-2.315721077
29944,Li4Fe3(OF3)2,-2.621806189
29945,Li5Fe7O3F13,-2.563149523
29946,Li4Fe(OF)2,-2.413245665
29947,Li2Fe2OF4,-2.613923618
29948,LiFe3OF5,-2.543130854
29949,Li3Fe3OF7,-2.733235842
29950,Li4Fe3OF8,-2.753587337
29951,Li3FeO2F,-2.247837317
29952,Li3Fe8O3F13,-2.536941695
29953,Li5FeO3F,-2.204670059
29954,LiMn7O7F,-2.06400583
29955,Li5NiO3F2,-2.130266745
29956,Li4Ni2OF7,-2.506198728
29957,Li3VOF5,-2.978952641
29958,Li3VO3F,-2.623488989
29959,Li2V4O5F8,-2.818519396
29960,Li7V4O11F,-2.520606868
29961,Li4VO3F2,-2.682110003
29962,Li8NiO5F,-2.003175124
29963,Li2NiO2F,-1.886320221
29964,Li5Ni5O9F,-1.477637828
29965,LiV3O5F3,-2.69348351
29966,Li4Mn(OF)2,-2.455410815