id,Composition,FormationEnergy
13154,Pr5(CBr4)2,-1.555697136
13155,TlHg3Sb2Br3,-0.406439882
13156,Rb2Cu(BrCl)2,-1.42346092
13157,Cu3Te2(BrO3)2,-1.044241976
13158,Cs2LaTa6(Br5O)3,-1.592883338
13159,SbBr(OF3)2,-1.871326224
13160,Cs2U(Br2O)2,-2.257919229
13161,CsNb3SBr7,-1.198117623
13162,CsTlBr4,-0.998360723
13163,Ce4C2Br5,-1.275111635
13164,Cs3Sb2Br9,-1.215992794
13165,CsLi3Br4,-1.581836947
13166,Cs2Xe(BrF7)4,-1.490566508
13167,CsMo3Br3Cl4,-1.252018061
13168,CsW3Br3Cl4,-1.087525846
13169,La8Ni4Br7,-1.184548466
13170,Cs3Cu2Br5,-1.225155372
13171,RbRe3Br10,-0.583179306
13172,Cs2MnBr4,-1.442038384
13173,YbBrO,-2.203371487
13174,BiH24C6(I2N)3,-0.398762113
13175,HgH16(Br3N2)2,-0.664818034
13176,Eu2BrO2,-2.937750173
13177,Nd3SeBrN2,-1.689984925
13178,NbBr3O,-1.50204912
13179,CsLi2Br3,-1.638176007
13180,FeSeBr7,-0.320405505
13181,Zr(InBr3)2,-1.103221203
13182,Eu2PBr,-1.561212985
13183,CrPC5Br3O5,-0.721654769
13184,InFeBr3,-0.317524521
13185,Th(InBr3)2,-1.283207727
13186,Gd2Br3,-1.511176531
13187,CsHg2Br5,-0.835112651
13188,Cs2HgBr4,-1.275750447
13189,Na3GdBr6,-1.703372581
13190,ReC5BrO5,-1.02039988
13191,Te6MoBr3,-0.274119221
13192,Hg2Pb(SBr)2,-0.57529173
13193,Pb13(Br3O5)2,-1.379090601
13194,Re3(TeBr)7,-0.292875811
13195,Ce5C2Br9,-1.475847315
13196,Rb3Tm2Cu4Br13,-1.285701263
13197,Re3Se4Br,-0.458512401
13198,LaNb2CuBrO7,-2.739557226
13199,H3BrO,-1.020934037
13200,H7BrO3,-1.18885857
13201,H9BrO4,-1.236642829
13202,K4Zr6CBr18,-1.544144905
13203,Ce2SbS5Br,-1.602131881
13204,Pb4SeBr6,-0.824938804
13205,MnC5BrO5,-0.794715214
13206,SiCuBr,0.67687593
13207,TaPbBr,1.336526057
13208,ReW2Br,1.263677479
13209,CuIrBr,1.185099227
13210,ReRuBr,1.32798999
13211,V2CuBr,0.661848225
13212,HfSi2Br,0.601562111
13213,IrPbBr,0.98883645
13214,IrOs2Br,1.358234098
13215,NiRuBr2,0.793779429
13216,MoPt2Br,0.529488345
13217,Re2RuBr,1.176860919
13218,La5In3Br,-0.686226667
13219,LaTiNbBi2O9,-2.85784406
13220,Gd6CoBr10,-1.59080374
13221,Mn2SnC10(BrO5)2,-0.799232949
13222,EuCsBr3,-1.982076986
13223,Te3(PdBr)4,-0.391886768
13224,Co7Te4(BrO2)6,-1.197385523
13225,Cs2MnV2(BrO3)2,-2.16946126
13226,Cs2SnBr6,-1.2696894
13227,Zr2HBr2,-0.956101121
13228,TbH2Br,-1.158387066
13229,SrCrBi12(Mo2O17)2,-1.931261333
13230,ZnH4(BrO)2,-1.193207849
13231,SrH2Br2O,-1.768429146
13232,CoH12(BrO7)2,-1.000218302
13233,HPbBrO,-1.286665319
13234,ZnCoTeBr2O3,-1.27694348
13235,Te2Mo3Se7Br10,-0.491457131
13236,Co5Se4(BrO6)2,-1.248501086
13237,Na3MgC2BrO6,-2.173244926
13238,PBr7,-0.256960299
13239,Cs2NpBr6,-1.58945671
13240,Fe3C8(Br2N)8,0.050884468
13241,K2IrCBr5O,-0.884792288
13242,Th6FeBr15,-1.570177276
13243,Mo6PbBr14,-0.73553053
13244,RuC3Br2O3,-0.930358553
13245,Rb3V2Br9,-1.306313442
13246,WC4(BrO2)2,-0.675638046
13247,W2C7Br4O7,-0.658862734
13248,SeBr4,-0.152983307
13249,Hg8Br3O4,-0.403734363
13250,Re3S4Br,-0.903253372
13251,Re(TeBr2)2,-0.366569274
13252,LuTa6Br13O3,-1.527469449
13253,Cs7Cd3Br13,-1.480853827
13254,Tb2Cs3Br9,-1.923937635
13255,ReTe3Br5,-0.281563355
13256,Ce3Si2S8Br,-1.799858545
13257,CsRe6S8Br3,-1.016049569
13258,La3Ge3Br2,-1.254633426
13259,CsGaBr4,-1.268284859
13260,Sm6Br13,-1.572328873
13261,Sn7(SBr5)2,-0.700297148
13262,RbMo3Br7,-0.887465016
13263,Nb12Br17F13,-1.85466319
13264,K3Sn2S3BrO12,-2.10956042
13265,Ce3Br6N,-1.811392367
13266,Re3(SeBr)7,-0.333481947
13267,RbW3Br7,-0.730744858
13268,Ta2Br5,-0.912706403
13269,Sm5Br11,-1.568957635
13270,LaSb(SBr)2,-1.546177961
13271,Nb6Tl3SBr17,-0.710488845
13272,Tl2Br3,-0.737488803
13273,Os3C10(BrO5)2,-0.637084148
13274,CeSb(SBr)2,-1.418262712
13275,Ce6S4BrN3,-2.085833463
13276,CBr4,0.209336226
13277,Cu3P4Se4Br3,-0.220425388
13278,NaMo6Br13,-0.766168486
13279,La10Ga5Br4,-0.946348906
13280,PWC5Br3O5,-0.665940868
13281,MnC4BrO4,-0.763472988
13282,Mn2InC10BrO10,-0.800334772
13283,TeS7Br2,-0.554532652
13284,CsRe3(S2Br)2,-1.112964237
13285,Cu2P8Se3Br2,-0.180007023
13286,Sm11Br24,-1.561879125
13287,In2Br3,-0.76767672
13288,YbBr3,-1.348370715
13289,InSnBr3,-0.72587237
13290,Na3SmBr6,-1.712252157
13291,Nb24I35Br9,-0.516297029
13292,Nb12I21Br,-0.468326296
13293,Sr5Li25La7(BiO6)8,-2.38983804
13294,Sr7LaCu4(BiO3)8,-1.970817511
13295,Co2TeBr2O3,-1.148210217
13296,Zr12Si2Bi2P16PbO72,-3.140606585
13297,SbH7(Br2O)3,-0.935867482
13298,CdH6C(BrN)3,-0.635039206
13299,LiH2BrO5,-0.847321465
13300,LaHBr2,-1.664516568
13301,MgZn2H12(BrO)6,-1.311607364
13302,MgH6(BrN)2,-0.8986035
13303,Ca10V5Fe15(BiO24)2,-2.369895664
13304,Co5Te4(BrO6)2,-1.36040813
13305,Li2H2BrN,-0.273239512
13306,GeW2C10(BrO5)2,-0.723557465
13307,Mn2SnC9BrO9,-0.745874665
13308,Ni5Te4(BrO6)2,-1.170044586
13309,Mo2P3Pb2BrO15,-2.113148573
13310,Mn2SnC10BrO10,-0.781227566
13311,Co3SnC12BrO12,-0.848204893
13312,Ca2VFe4BiO12,-2.251073103
13313,H15RhBr3N5,-0.648521316
13314,ZnH18Ru2Br7N6,-0.619412066
13315,CdH24C4(BrN2)6,-0.586467983
13316,HgH4C4(Br2N)2,0.606428943
13317,CaHgH16(BrO2)4,-1.316102772
13318,CaZn2H12(BrO)6,-1.34891774
13319,Sr20P12Br(O16F)3,-3.403544498
13320,Na3Bi2H42C18I9(N2O3)3,-0.458989908
13321,TeH18(Br3O4)2,-1.13003815
13322,UP3H10BrO8,-1.571218444
13323,CuH12(BrO6)2,-0.618726864
13324,NaH2BrO5,-0.804779091
13325,NiH12(BrO7)2,-0.961485391
13326,SrCoBiRuO6,-1.867327683
13327,NiH12(BrO6)2,-0.56350418
13328,Ca8V7ZnBiO28,-2.831627675
13329,CoH12(BrO6)2,-1.066155733
13330,Mo3H9Br3(ClO)4,-0.995329013
13331,CaH8(BrO6)2,-1.083563496
13332,HoBrO,-3.159130864
13333,Li4H3BrO3,-1.806880917
13334,YBrO,-3.151287112
13335,CeBrO,-3.049720307
13336,LiH2BrO,-1.46435289
13337,ZrBrO,-2.448343305
13338,TmBrO,-3.184691795
13339,Pb(BrO3)2,-0.670623384
13340,RbBrO4,-0.855630778
13341,YBr3,-1.920686809
13342,BrClO,-0.260198378
13343,SrLaBr5,-2.040646069
13344,PrBrO,-3.062016129
13345,P2H12BrN7,-0.621254893
13346,ScH6Br3N2,-1.028897888
13347,Yb4Br6O,-2.277960278
13348,SrCd2H16(Br3O4)2,-1.323343469
13349,Li4Cu3Bi(PO4)4,-2.251560508
13350,K3BiPCO7,-2.192508443
13351,NaBiPCO7,-2.081927976
13352,Li2BiPCO7,-2.288005488
13353,Li4Bi2C4SO16,-1.983810257
13354,SbBrO,-1.28872582
13355,Li3SiBiCO7,-2.348292917
13356,Na6Bi2C4SO16,-1.926811531
13357,NaBiCSO7,-1.976057059
13358,Sr3LaBr9,-2.102553337
13359,K2BiPCO7,-2.303202118
13360,W(BrO)2,-1.321701522
13361,Li5Mn3Bi2(PO4)6,-2.501400428
13362,Li4CrBi(TeO6)2,-1.85471907
13363,Li4FeBi(TeO6)2,-1.804937407
13364,Li2CuBi(PO4)2,-2.291492091
13365,P2H9(CBr)3,-0.344527646
13366,Ca9La5Br33,-1.948535734
13367,H28Pt2Br5N9O2,-0.66479611
13368,Sr9La5Br33,-2.060420518
13369,PuBr2,-1.384140094
13370,SeBr2,-0.036876053
13371,ScBr2,-1.447017095
13372,Pr10C4Br15,-1.52074627
13373,PmBr3,-1.868384643
13374,HfBr3,-1.234380836
13375,DyBr3,-1.859944034
13376,TmBr3,-1.835442341
13377,VBr3,-0.781454797
13378,YBr2,-1.549775267
13379,FeH4Br3N,-0.618230565
13380,CuH6BrN2,-0.570297755
13381,LuBr3,-1.818375918
13382,CrH9(BrN)3,-0.726549977
13383,La3NiBr3,-1.311230183
13384,TbBr3,-1.860973405
13385,TeBr2,-0.186841967
13386,H6C2SBr2,-0.331308035
13387,Nb6Cd(Br8O9)2,-0.895944323
13388,Ti3Br,0.300863261
13389,VBr2,-0.851597723
13390,SmBr,-1.14883818
13391,SeBr3,0.274178638
13392,LuBr,-0.930040983
13393,LuBrO,-3.18776937
13394,SBr3,0.259748576
13395,S3Br,0.127276984
13396,Rh3Br,0.6726011
13397,ReBr,1.306259983
13398,RbBr3,-0.626846298
13399,HoBr3,-1.845929452
13400,Mg3Br,-0.126844236
13401,Th3Br,0.061076253
13402,Tl3Br,-0.2986441
13403,SrBr3,-1.295575575
13404,Ce3Br,-0.210849785
13405,Na3BrO,-1.533492271
13406,Li6PS5Br,-1.329851099
13407,SnBrF,-1.655294197
13408,SnBrCl,-1.008965759
13409,Cs2LiInBr6,-1.400098464
13410,Cs2SBrCl6,-1.263094874
13411,Rb2SBrCl6,-1.219325205
13412,Cs2BrCl6F,-1.201921136
13413,Rb2BrCl6F,-1.175162552
13414,K2SBrCl6,-1.181884407
13415,K2BrCl6F,-1.149582698
13416,Cs2IBrCl6,-1.214179611
13417,Cs2RbInBr6,-1.437159172
13418,Cs2NaInBr6,-1.417195017
13419,Cs2TlInBr6,-1.275009957
13420,CuBrO2,-0.562107158
13421,TlGeBr3,-0.681669295
13422,RbSnBr3,-1.191841838
13423,RbPdBr3,-0.919382262
13424,RbPbBr3,-1.257912868
13425,RbInBr3,-1.17748972
13426,RbCuBr3,-0.88266372
13427,RbCaBr3,-1.94862131
13428,CsSrBr3,-2.022218512
13429,RbSeBr3,-0.781405018
13430,CsPdBr3,-0.938744846
13431,CsScBr3,-1.617746702
13432,CsInBr3,-1.227067582
13433,RbTlBr3,-1.07053204
13434,KGeBr3,-1.050687577
13435,CsSeBr3,-0.808336884
13436,KCaBr3,-1.961817894
13437,Li(CN)2,-0.007761576
13438,Si(CO)2,-0.477934061
13439,LiC6,-0.007116573
13440,C4O3,-0.908657835
13441,LuNiC2,-0.342331674
13442,LuFeC2,-0.286555919
13443,LuCoC2,-0.360299941
13444,IrC,0.546551061
13445,HfC,0.398533158
13446,LaC,0.560755902
13447,ScC,-0.140653409
13448,GeC,0.436334458
13449,SiC,0.538037466
13450,PtC,2.005065066
13451,RuC,0.644508268
13452,CCl4,-0.621997083
13453,CdC,2.104661781
13454,C,0.437262099
13455,W2C,0.056616207
13456,WC,0.795859776
13457,V2C,-0.45520624
13458,UC2,0.537561249
13459,SrC2,0.168882661
13460,ReC2,0.890438559
13461,OsC2,0.595918863
13462,IrC2,1.469561508
13463,MoC,0.504964581
13464,NbC,0.101733451
13465,PdC,1.486628331
13466,OsC,1.464221288
13467,NiC,1.101599426
13468,RhC,1.092725561
13469,CaC2,0.204858711
13470,ReC,0.740432113
13471,TaC,-0.167990669
13472,CN2,0.720028862
13473,SnC,0.816059646
13474,TcC,0.648320918
13475,ZrC,0.419810056
13476,C3N,4.355616808
13477,GaPt3C,0.338230091
13478,LaPd3C,-0.193519525
13479,LaPt3C,-0.221326565
13480,LaNiC2,-0.256207641
13481,CrC,-0.013611434
13482,HoFeC2,-0.273559359
13483,DyFeC2,-0.268795439
13484,PaC2,-0.266760686
13485,GdCoC2,-0.312250694
13486,GdFeC2,-0.225468933
13487,EuC2,0.002786823
13488,Mg3ZnC,0.172570451
13489,ScPt3C,-0.175957928
13490,YPd3C,-0.250463686
13491,ScPd3C,-0.185266082
13492,SnPd3C,0.115772028
13493,YPt3C,-0.260918998
13494,SiC2,0.428406883
13495,LiC12,-0.009038068
13496,H4C,-0.376971059
13497,CaC4,0.330529523
13498,U2Mo2C3,-0.198937525
13499,Lu2Cr2C3,-0.352626834
13500,Tm2Cr2C3,-0.341116019
13501,Ta4C3,-0.450661567
13502,U2Re2C3,-0.179151588
13503,U2W2C3,-0.124513639
13504,Tb2Cr2C3,-0.300326359
13505,Pu2W2C3,-0.116912
13506,SmC6,-0.030612779
13507,Dy2Cr2C3,-0.312329388
13508,Tb2Mo2C3,-0.333432867
13509,Dy2Mo2C3,-0.349039688
13510,Tm2Mo2C3,-0.386168008
13511,Y2Cr2C3,-0.307225878
13512,Ta2GaC,-0.517454688
13513,CsCuC2,0.267135988
13514,Sc3NiC4,-0.429793452
13515,Zr2TlC,-0.622434896
13516,ZnFe3C,0.016230618
13517,ScCo3C,-0.292919321
13518,ZnCo3C,-0.011229909
13519,Er3GaC,1.183832325
13520,Er3InC,1.600801802
13521,Ho3GaC,1.182197267
13522,Nd3GaC,1.205706756
13523,Tm3GaC,1.188597328
13524,Ho3InC,1.591865446
13525,Mg(C2N3)2,-0.187643457
13526,Y3GaC,-0.481775409
13527,Sm3GaC,-0.314989365
13528,Sm3TlC,-0.341998294
13529,Lu3TlC,-0.523642284
13530,Y3SnC,-0.657208878
13531,Lu3SnC,-0.666580742
13532,La3PbC,-0.437303072
13533,LuRh3C,-0.560262606
13534,MgNi3C,-0.137926923
13535,ZrRu3C,-0.330079537
13536,PrRh3C,-0.36432811
13537,ScRh3C,-0.505410974
13538,TmRh3C,-0.547106083
13539,YbRh3C,-0.423843
13540,Sm3SnC,1.425746978
13541,ThC2,0.135270759
13542,Ti2C,-0.642146382
13543,RbC,0.312146704
13544,Rb2PdC2,0.032108293
13545,Rb2PtC2,-0.067032771
13546,CdCN2,-0.093431636
13547,YbC2,-0.050905846
13548,NaC,0.228247208
13549,Ho4C7,-0.294524315
13550,ThC,-0.277134579
13551,Cd(C2N3)2,0.09851049
13552,CF4,-2.198873967
13553,ErNiC2,-0.343220937
13554,CO2,-1.776896594
13555,La2C3,-0.16951037
13556,CO,-0.672467257
13557,Gd2Mo2C3,-0.293401415
13558,SrCN2,-1.049581671
13559,MnCN2,-0.179643076
13560,Fe4C,0.517194578
13561,Ti2GaC,-0.757601611
13562,CaPd3C,-0.198112984
13563,Dy2C,-0.28311602
13564,SmC2,-0.147522576
13565,GdC2,-0.166309518
13566,VC,-0.413880569
13567,Sc2TlC,-0.505280697
13568,Hf2CS,-1.507775786
13569,Fe3C,0.053998702
13570,Ce2Mo2C3,-0.279829105
13571,Sm2Mo2C3,-0.239840192
13572,Y2C,-0.29194155
13573,ErCoC2,-0.355600671
13574,TmCoC2,-0.360927222
13575,LiC,0.015065853
13576,La2Fe14C,0.006247061
13577,HoC2,-0.193433259
13578,Tm11(Ni10C)6,-0.290617565
13579,Lu4C7,-0.323400244
13580,Tb4C5,-0.310903724
13581,Ho4C5,-0.336429946
13582,Lu2C3,-0.264478152
13583,Yb15C19,0.284854986
13584,Mo2C,-0.102959561
13585,Nb4C3,-0.350588818
13586,Sc4C3,-0.486534102
13587,MgCN2,-0.2784057
13588,ErC2,-0.193683653
13589,Mn3Mo3C,-0.076488459
13590,Mn3W3C,-0.075668799
13591,DyRh3C,-0.515826686
13592,C11F7,-0.701251079
13593,Sc15C19,-0.414447279
13594,NdRh3C,-0.394522209
13595,ZnNi3C,-0.057189852
13596,Sc2C3,-0.268137091
13597,Sc3SnC,-0.790921012
13598,Ho2C,-0.301700026
13599,Sc2GaC,-0.531484018
13600,KC10,0.219393965
13601,Re2W3C,0.026707801
13602,Y2C3,-0.254688232
13603,RbC10,0.212420425
13604,Ta3Co3C,-0.347075451
13605,CsC10,0.198812027
13606,SmC10,0.294828362
13607,SrC10,0.20576206
13608,Nb3Cr3C,-0.178065172
13609,Nd2C3,-0.166675577
13610,Ge3Mo5C,-0.069047057
13611,Fe7C3,0.077730055
13612,Mn5SiC,-0.175620281
13613,Fe2C,0.057930517
13614,MnCO3,-2.029103736
13615,NiCO3,-1.546860483
13616,PbCN2,-0.077485372
13617,CeNiC2,-0.227154652
13618,Pr3InC,1.550800982
13619,TmCoC,-0.348608586
13620,Sm3PbC,1.578190386
13621,Yb3InC,0.001246954
13622,Y3InC,-0.544065546
13623,Dy3PbC,-0.543484222
13624,Cr2GeC,-0.08113384
13625,PuRu3C,-0.042434862
13626,Nb2InC,-0.407588223
13627,Tb3TlC,1.60431449
13628,C3N4,0.325434853
13629,Cr7C3,-0.1084772
13630,Dy3InC,-0.512377468
13631,Pu2C3,-0.007622512
13632,PbCO3,-1.827885809
13633,Dy3SnC,-0.629139224
13634,PrC2,-0.100197883
13635,Gd3PbC,1.530639451
13636,Zr2InC,-0.699323373
13637,Pt3PbC,0.37946113
13638,KCN,-0.35399112
13639,Ce3SnC,1.648278784
13640,Mn3GaC,1.918177128
13641,Sc2InC,-0.549532521
13642,Mn3GeC,-0.051607118
13643,Ce2C3,-0.253798234
13644,GdRh3C,-0.466866663
13645,Cr2GaC,-0.137089206
13646,Sm3InC,1.563533924
13647,Ti2InC,-0.673948109
13648,Ti3InC,-0.54860801
13649,GdCoC,-0.263083711
13650,DyCoC,-0.315554451
13651,Nd3InC,-0.324283791
13652,Pr3PbC,1.554049814
13653,Nd3SnC,1.415219009
13654,MgCo3C,-0.068048102
13655,Er3PbC,1.656435008
13656,Mn2Co2C,0.11513708
13657,SnPt3C,0.334432374
13658,Gd3InC,1.527687997
13659,Pr3SnC,1.410374862
13660,Ce3PbC,1.81436236
13661,Ti2PbC,-0.566025217
13662,Co3SnC,0.017839295
13663,Tb3SnC,1.445348566
13664,CeCoC2,-0.298354728
13665,InPt3C,0.2392842
13666,Er2ReC2,-0.448359028
13667,Nd3PbC,1.562323305
13668,Mn3SnC,-0.008959515
13669,HoCoC,-0.3266463
13670,Dy3GaC,1.177289347
13671,Co3C,0.133937932
13672,Cr3C2,-0.10854316
13673,Tb3PbC,1.606322642
13674,Ho3TlC,1.619101124
13675,V2InC,-0.352968331
13676,Ce3InC,-0.328781544
13677,Y2ReC2,-0.418948235
13678,Y3PbC,-0.5693271
13679,Ti3SnC2,-0.779799517
13680,Er3TlC,1.627457646
13681,Pd3PbC,0.182975508
13682,Sc3PbC,-0.679154564
13683,Mn3InC,2.339422077
13684,EuRh3C,-0.208611069
13685,TbC2,-0.188823491
13686,Yb3GaC,0.061191597
13687,Mn7C3,-0.070803755
13688,Tm3InC,1.611266083
13689,Ce3TlC,1.876374664
13690,Tb3InC,1.572629998
13691,YCoC,-0.304930141
13692,Ni2Mo4C,-0.087160887
13693,Fe3SnC,0.06921256
13694,Nd3TlC,1.594114085
13695,VRu3C,0.098308687
13696,Tm3SnC,1.512217201
13697,U20Si16C3,-0.266096132
13698,Yb3TlC,1.2075485
13699,TaRu3C,-0.078910743
13700,YRh3C,-0.494214946
13701,Ta2InC,-0.390197906
13702,Hf2InC,-0.718869122
13703,TbCoC,-0.301169262
13704,Yb3SnC,1.085040458
13705,UCrC2,0.073729574
13706,CS2,-0.173061297
13707,NbRu3C,-0.028730617
13708,Dy2C3,-0.264644604
13709,ThRu3C,-0.291541461
13710,Co(C2N3)2,0.196278222
13711,Ni(C2N3)2,0.195104562
13712,Co2C,0.10969163
13713,Dy3TlC,1.609735836
13714,CeRh3C,-0.366775854
13715,Er3SnC,1.490049334
13716,Tm3PbC,-0.559029965
13717,Tm3TlC,1.638997021
13718,Pr2ReC2,-0.23211626
13719,HoRh3C,-0.526822298
13720,CeC,-0.054361899
13721,LuCoC,-0.360958101
13722,Pb(CO2)2,-1.62444008
13723,Mn5C2,-0.068843485
13724,UFeC2,0.343154519
13725,Er15C19,-0.339525666
13726,C(ClF)2,-1.394828389
13727,NdC2,-0.118381314
13728,YCI,-0.862370913
13729,CCl3F,-1.003466942
13730,Nb2C,-0.440913673
13731,Ho2C3,-0.266694035
13732,Y4CI5,-1.123876562
13733,Pr12C6I17,-1.149324176
13734,Y6C2I7,-1.101453469
13735,LaC2,-0.161976675
13736,PH9C3Br3N,-0.317970168
13737,KC,0.244532133
13738,CrCuH18Br5N6,-0.666586886
13739,MnH16C4(Br2N)2,-0.48876091
13740,SiP3H29C10BrN,-0.315623597
13741,CoCO3,-1.701228817
13742,UC,-0.122337797
13743,NpC,0.176257519
13744,CsCrH18Br2N6(ClO4)2,-0.803612466
13745,U2C3,-0.121449493
13746,TmC2,-0.194997718
13747,C2N,0.368286652
13748,CuCO3,-1.293371802
13749,LaCO,-2.163999016
13750,CN,0.506105926
13751,Nb6C5,-0.538784168
13752,CS14,-0.55527721
13753,Ti8C5,-0.724608702
13754,Fe5C2,0.054573226
13755,CI4,0.533417196
13756,PuC,0.121551032
13757,Gd3CCl3,-1.789929481
13758,Er4Ni13C4,-0.359248894
13759,Ca3C3Cl2,-1.168318278
13760,Sc7CI12,-1.133592689
13761,Zr6CI14,-0.997778
13762,Zr6CI12,-0.955551758
13763,CeC2,-0.155422702
13764,Er10Ru10C19,-0.265983692
13765,CClF3,-1.790152365
13766,Sc2CCl2,-1.782517133
13767,Os2(CO)7,-0.94454279
13768,Gd2CCl,-1.218171021
13769,Th11(Ru2C3)6,-0.298007787
13770,C15S4,0.158543926
13771,Gd2CI,-0.74891819
13772,V6C5,-0.548037738
13773,Sc3C4,-0.406044511
13774,Ca4Ni3C5,-0.183340974
13775,Sc5Re2C7,-0.488297042
13776,Mg2C3,0.169097886
13777,Si3CCl8,-1.404318947
13778,Gd3(MnC3)2,-0.257193849
13779,Tb3(MnC3)2,-0.277594935
13780,Er7Ru2C11,-0.285434887
13781,TeCF2,-0.923440071
13782,U3(SiC)2,-0.230171522
13783,CsC8,-0.050271586
13784,SrC20,0.266246406
13785,Ti6CCl14,-1.991724789
13786,KC8,-0.031555084
13787,La3InC,-0.329746204
13788,Mn3ZnC,-0.029341707
13789,Sc7(CCl5)2,-2.075386865
13790,Zr6CCl14,-2.158603501
13791,Gd2CCl2,-1.700623787
13792,La2CCl,-1.185992577
13793,CIF7,-1.849398518
13794,Y5C2I9,-1.228046616
13795,TeCF3,-1.444286648
13796,V4P2C,-0.778737458
13797,U3Si2C3,-0.013512439
13798,KC60,0.356597003
13799,U(CrC)4,-0.174461874
13800,UCO5,-2.83298036
13801,MgC2,0.430116154
13802,Cr3GeC,-0.069046016
13803,ZnCN2,-0.258751033
13804,HgCN2,0.271508101
13805,Sc2C,-0.424181376
13806,Ca(C2N3)2,-0.274343175
13807,Sr(C2N3)2,-0.298340267
13808,Si3CCl7,-1.344414077
13809,Ni6Mo6C,-0.085964565
13810,LiCN,-0.384148037
13811,CIN,0.426193156
13812,C3S8,-0.252802374
13813,W2CCl8,-1.097230855
13814,Si(CN2)2,-0.410709176
13815,Si2CN4,-0.880097438
13816,H34C19,-0.246515391
13817,W6CCl18,-1.237053504
13818,ThCN,-1.068673432
13819,Li2CO3,-2.260002997
13820,TbNiC2,-0.332184284
13821,Sc5CCl8,-2.164678464
13822,Pr2Mo2C3,-0.172288806
13823,Pr2MoC2,-0.150163462
13824,RbCO3,-1.873259876
13825,YC2,-0.186199192
13826,KCO3,-1.74588654
13827,Nd(C2N3)3,-0.205873356
13828,La(C2N3)3,-0.223951445
13829,CsHC2,0.28080535
13830,Sc3FeC4,-0.434483134
13831,Nb10C7,-0.471458225
13832,Rb6C5,2.183709235
13833,SrCO3,-2.680110433
13834,LaRhC2,-0.337131756
13835,Cd(CN)2,0.199648119
13836,Zn(CN)2,0.049335942
13837,K4C2O3,-0.967802267
13838,Mg(CN)2,-0.24516872
13839,Ta2CN,-0.840796983
13840,Ti2CS,-1.416774407
13841,Er2Mo2C3,-0.373292551
13842,DyCoC2,-0.345850208
13843,Ti2SnC,-0.720183008
13844,CaCO3,-2.703808611
13845,K2CO3,-2.13284925
13846,TmNiC2,-0.346417901
13847,CaCN2,-1.083912208
13848,Sc3TlC,-0.622306668
13849,Hg(CO2)2,-1.279518174
13850,Na2PtC2,-0.054332323
13851,Nb2CS2,-1.115709645
13852,CdCO3,-1.779100368
13853,Ti3TlC,-0.438971896
13854,DyNiC2,-0.337709454
13855,Zr2SnC,-0.784102793
13856,Ca11(CN5)2,-1.002527929
13857,Na2PdC2,0.030253905
13858,Hf2SnC,-0.773853416
13859,ScCrC2,-0.345237476
13860,Zr2CS,-1.506687826
13861,Sc2CI3,-1.055223064
13862,Ho2Mo2C3,-0.361679537
13863,Nb4Zn2C,-0.1893647
13864,Zr3V3C,-0.194905671
13865,Co2Mo4C,-0.051784273
13866,Nb3Co3C,-0.256327183
13867,Pb2CO4,-1.7382529
13868,CsC,0.320249691
13869,Cs2PdC2,0.029562268
13870,Cs2PtC2,-0.074718429
13871,Sc3CoC4,-0.448069596
13872,NaCu5C6,0.558560508
13873,PuRh3C,-0.187205427
13874,TbCoC2,-0.338077767
13875,HoNiC2,-0.340435877
13876,Ca4CN4,-1.023126916
13877,KCuC2,0.275237961
13878,MgCO3,-2.464362112
13879,NdNiC2,-0.256224866
13880,PCF3,-1.070630321
13881,Re(CO)5,-1.036755526
13882,Sc6C2I11,-1.134234888
13883,DyC2,-0.193107786
13884,Tb12(OsC3)5,-0.345564366
13885,TbRh3C,-0.504887137
13886,RbCuC2,0.273965687
13887,V8C7,-0.527279254
13888,Sn(CO2)2,-1.591675745
13889,Mn23C6,-0.091312828
13890,Dy12(MnC3)5,-0.358297632
13891,Tl2CO3,-1.506758564
13892,Co(CO)4,-0.725253824
13893,Th2Ru6C5,-0.210896823
13894,Nb2SnC,-0.405857431
13895,K4CO4,-1.559149825
13896,Cs(CO)2,-1.339224018
13897,Rb4CO4,-1.577885869
13898,Li4CO4,-1.872953374
13899,Rb(CO)2,-1.331612001
13900,Li(CO)2,-1.361462383
13901,Te(CF4)2,-1.885514892
13902,EuCO3,-2.63242972
13903,Cd(CO2)2,-1.581477867
13904,CsCO2,-1.921517448
13905,La2CO5,-3.296328534