id,Composition,FormationEnergy
10369,BaNaNd(GeO3)3,-2.672513641
10370,Ba2Mg(PO4)2,-3.249792638
10371,Be12Mo,-0.133355109
10372,BaErCuS3,-2.041674878
10373,BaSmC2O6F,-2.921762071
10374,Ba4LiCu(CO5)2,-2.492496809
10375,ThBe13,-0.16843749
10376,Be2C,-0.238904886
10377,BeCN2,-0.575526788
10378,BeSiN2,-1.413910746
10379,Be12Cr,-0.069363198
10380,BaGd2ZnO5,-3.208301057
10381,BeF2,-3.574075319
10382,BaPr2MnS5,-2.12958117
10383,Ba3Sc4(CuO4)3,-2.89689569
10384,Ba5Gd8Zn4O21,-3.198637787
10385,Be2Mo,-0.319223318
10386,Ba3PrRu2O9,-2.574727318
10387,Ba3MgSb2O9,-2.714768567
10388,BaLaCuTe3,-1.30804575
10389,Ba3ZnRu2O9,-2.245677506
10390,Ba2ZnGe2S6O,-1.66092946
10391,BaCu2GeSe4,-0.719121588
10392,Tb2Ba4Cd3S10,-1.985314484
10393,BeO,-3.114541766
10394,BaHo2CuO5,-3.106935237
10395,BaCu2GeS4,-1.142367597
10396,BaTi2(P2O7)2,-3.004381944
10397,Tb2BaZnO5,-3.266079192
10398,Ba2LaC3O9F,-2.873883439
10399,Ba4LiNb3O12,-3.219416029
10400,BaMgP2O7,-3.133637685
10401,CaBe13,-0.107073409
10402,Ba3YRu2O9,-2.637917971
10403,BaEr2CoO5,-3.189919727
10404,BaNd2NiO5,-2.959002605
10405,HfBe13,-0.185445336
10406,BaPr2NiO5,-2.929913564
10407,K2BaCo(NO2)6,-1.337027242
10408,BaCo2(PO4)2,-2.582473
10409,BaMnCO3F2,-2.812338995
10410,Ba3CoRu2O9,-2.193483287
10411,BaEr2NiO5,-3.094786507
10412,BaNd2CoO5,-3.018482886
10413,BaSr2Mn2(Si2O7)2,-3.118503979
10414,BaHo2NiO5,-3.087024668
10415,BaSm2NiO5,-3.005320381
10416,BaCo2Si2O7,-2.710953342
10417,BaLaMn2O6,-2.743268601
10418,BaSm2CoO5,-3.104648596
10419,Ba2SmMoO6,-3.03235549
10420,BaPrMn2O6,-2.700440289
10421,BaCoP2O7,-2.780227738
10422,Tb2BaNiO5,-3.068391638
10423,BaGd2NiO5,-3.012496353
10424,BaDy2NiO5,-3.07906874
10425,Ba5Sm8Mn4O21,-3.229251045
10426,BaCaV2O7,-2.929339955
10427,Ba2Mn(PO4)2,-3.082347863
10428,Ba2Ni(PO4)2,-2.887280847
10429,Ba6Na2V2Ru2O17,-2.614587824
10430,BaTi18Mn3O38,-3.349591259
10431,BaV2(PO5)2,-2.831345961
10432,BaHoCo4O7,-2.113414733
10433,RbBaMnO4,-2.228775322
10434,Ba3NiSb2O9,-2.385959059
10435,HfBe5,-0.243984996
10436,Be2Nb,-0.190442833
10437,Be2Cu,-0.145727662
10438,Ba2LuCu3O7,-2.208007418
10439,Ba2Y(CuO2)4,-1.709879865
10440,Ba2YCu3O7,-2.192520171
10441,SrBe13,-0.059872641
10442,Ba4Y2Cu6O13,-2.219551422
10443,Ba2PrCu3O7,-2.158278069
10444,EuBa2SbO6,-2.864164093
10445,Ba2SmCu3O7,-2.181654408
10446,BaSm2CuO5,-3.016234702
10447,Ba2Lu(CuO2)3,-2.259891286
10448,Ba2CuGe2O7,-2.395482707
10449,Ba2SmNbO6,-3.411112969
10450,Be2Fe,-0.284026844
10451,Ba3InRu2O9,-2.277883675
10452,Ba3CuRu2O9,-2.130888682
10453,Ba2Ca2Cu3HgO8,-2.057710874
10454,Ba2NdCu3O7,-2.167314636
10455,Ba2Cu3(ClO2)2,-1.894108598
10456,BeCu,-0.097421365
10457,BeCl2,-1.826817976
10458,KBa4Bi3O,-1.308291187
10459,NaBeH3,-0.140945138
10460,CsBeH3,-0.20083062
10461,BaHClO,-2.444340965
10462,LiBeH3,-0.315119097
10463,BaNdCo2O5,-2.375898303
10464,BaPr(CoO3)2,-2.24490025
10465,Ba2Nd2Co4O11,-2.343835709
10466,Tb2Ba2Co4O11,-2.351500929
10467,BaNdMn2O6,-2.696014721
10468,Ba5Ho8Mn4O21,-3.307361809
10469,BaMo2(P2O7)2,-2.74156861
10470,BaVPO6,-2.88837734
10471,BeTe,-0.36417956
10472,Zr2Be17,-0.248227896
10473,HfBe2,-0.177589802
10474,Ba3NiRu2O9,-2.146507729
10475,Ba2Ho2Co4O11,-2.353489734
10476,BaVP2(H2O5)2,-2.40393684
10477,TaBe2,-0.196150487
10478,BeP2,-0.328931126
10479,TiBe2,-0.199472601
10480,BeCo,-0.318427693
10481,K4Be3O5,-2.325968341
10482,Na6Be8O11,-2.569092154
10483,LiBeN,-1.00467005
10484,Be3P2,-0.157320143
10485,Be2Te7Cl6,-0.913892217
10486,BeBr2,-1.051031238
10487,BeI2,-0.578331858
10488,Be2Cr,-0.230896132
10489,Ta6Be15Cu8,-0.207881139
10490,Be22Mo,-0.060404471
10491,Be17Nb2,-0.205699289
10492,NpBe13,-0.067961602
10493,Be17Ru3,-0.286950455
10494,Be22W,-0.049976325
10495,ZrBe13,-0.207639131
10496,Li2BeH4,-0.132039894
10497,DyBe13,-0.195735909
10498,Na2BeF4,-3.290961857
10499,PuBe13,-0.117677167
10500,BeTl2F4,-2.723515407
10501,BaLaTiCrO6,-3.306650462
10502,BaLaMgRuO6,-2.775836517
10503,BaLaZnRuO6,-2.484373073
10504,BaLaMgNbO6,-3.333191648
10505,K3Ba7Ti10(O9F)3,-3.398670324
10506,BaSm4Si3SeO12,-3.490293674
10507,BaCaLaBiO6,-2.639324814
10508,BaLiLaTeO6,-2.683544624
10509,BaLaMgTaO6,-3.457541844
10510,BaLaMnMoO6,-2.693719605
10511,KBa4Ti5O14F,-3.433814603
10512,BaSrLaBiO6,-2.507321039
10513,Ba3Na2Ti3Nb2O15,-3.22003252
10514,BaLaCuRuO6,-2.304495581
10515,BaLiPrTeO6,-2.628156772
10516,Ba2La2Zn(WO6)2,-2.863378819
10517,BaLaTaMnO6,-3.206164304
10518,BaLaMgBiO6,-2.64337106
10519,BaLa2TiCr2O9,-3.241475338
10520,BaNdNiSbO6,-2.506337299
10521,BaYMnCoO5,-2.624278804
10522,BaLaTaZnO6,-3.146375723
10523,BeS,-1.397652102
10524,Ba2Ce3Si3O12F,-3.609789002
10525,CeBe13,-0.155546636
10526,Li2BeF4,-3.383740535
10527,Cs2BeF4,-3.333416823
10528,Be2TlF5,-3.219600242
10529,Ba2Y2CuPtO8,-2.671415193
10530,Eu2BaNiO5,-2.596281074
10531,BaNa2V2CuO8,-2.352906074
10532,Tb2Ba2Ti2Cu2O11,-3.045541891
10533,BaLu2CuO5,-3.14199643
10534,Ba2LaCu3O8,-2.056953646
10535,SmBeF4,-3.517881249
10536,BaYFeCuO5,-2.535600683
10537,Ba2Co(PO4)2,-2.953071161
10538,BaEr2CuO5,-3.117110562
10539,Ba5Co5ClO13,-2.071892426
10540,Eu2BaZnO5,-2.768193273
10541,BaNpPH2O7,-2.820107563
10542,CsBaIn2(PO4)3,-2.726544265
10543,Ba5Sr2Nd8(CuO5)5,-2.87972108
10544,Ba3SmIr2O9,-1.387684332
10545,Ba2UFeO6,-3.161399174
10546,BaHo2CoO5,-3.201647787
10547,BaV2(P2O7)2,-2.8589842
10548,BaCeC2O6F,-2.8781861
10549,Ba3DyRu2O9,-2.648355127
10550,Ba3ErRu2O9,-2.659365567
10551,YbBa3Ru2O9,-2.554538425
10552,BaCu2Ge2O7,-1.98187388
10553,Ba3LiRu2O9,-2.311787628
10554,Ba3NaRu2O9,-2.269841338
10555,Ba4Ca4Tl3Cu6O19,-1.984852736
10556,BaNaCe2C4O12F,-2.702315654
10557,Ba4Na(RuO4)3,-2.276606347
10558,BaY2CuO5,-3.066975404
10559,Ba3Zn6Si4TeO20,-2.639828367
10560,YbBa2BiO6,-2.544301159
10561,Ba2NdRuO6,-2.772101415
10562,Eu2BaCoO5,-2.713728616
10563,Ba2NdBiO6,-2.779266238
10564,BaBi4(IO2)2,-1.272136339
10565,Ba2ZnReO6,-2.547842438
10566,BaBeSiO4,-3.339928525
10567,Ba2CuClO2,-2.451092169
10568,TbBa2BiO6,-2.842898899
10569,Ba3Lu2Zn5O11,-2.682242431
10570,BaPb2BrF5,-2.904184191
10571,Ba7Ru4Cl2O15,-2.405878158
10572,Ba2Fe2S2OF2,-2.505450008
10573,BaCu2Te2(ClO3)2,-1.656937355
10574,Ba2Sb4P2O17,-2.471477915
10575,BaH2C4S4N2(O3F4)3,-1.77937048
10576,Ba3Si6N4O9,-2.760017918
10577,Ba3Nb2(P2O9)2,-3.139127618
10578,BaVZnP2O9,-2.778379997
10579,Ba6Ru2Pt(ClO6)2,-2.392773417
10580,Ba4Gd2Cd3S10,-1.983098949
10581,Ba3SrSb2O9,-2.739369409
10582,Ba17Ho16Zn8Pt4O57,-3.013303278
10583,Ba3LuRu2O9,-2.674267161
10584,Ba13Dy8Zn4Pt4O37,-2.852986132
10585,Ba6Er2Ga4O15,-3.0208769
10586,BaMo2(PO4)3,-2.716533901
10587,Ba6Ti5S15O,-2.196813539
10588,Ba2Li3(PO3)7,-2.873553336
10589,BaCuCO3F2,-2.458994435
10590,BaCa(PO3)4,-3.010574757
10591,EuBa3Ru2O9,-2.516774161
10592,Ba3NaBiO6,-2.451528206
10593,Ba17Dy16Zn8Pt4O57,-3.006482361
10594,Ba3Bi2TeO9,-2.349647539
10595,Ba5Ru2Cl2O9,-2.51696023
10596,BaH16C4S4(NO5)2,-1.07290548
10597,Ba2Ca3Tl2(CuO3)4,-1.966300105
10598,Ba3BiRu2O9,-2.214399515
10599,BaCuPClO4,-2.506595559
10600,Ba6Na2Nb2P2O17,-3.156956264
10601,Ba7MnFe6F34,-3.453623498
10602,Ba3Mg(SiO4)2,-3.337608046
10603,BaCu6(GeS4)2,-0.823325164
10604,BaNa2(SiO3)2,-3.021125122
10605,BaCSNCl,-1.434075153
10606,Ba7Ru4Br2O15,-2.329479067
10607,Ba2Nd2Ti2Cu2O11,-3.037952289
10608,Ba3TiNb4O15,-3.279752978
10609,Ba2ZnWO6,-2.659362389
10610,BaSi6N8O,-1.5695177
10611,Ba17Tm16Zn8Pt4O57,-3.031040602
10612,Ba2Ti2Si2O9F2,-3.575223204
10613,BaLi2Ti6O14,-3.408348682
10614,Ba6Nb2Ir(ClO6)2,-2.936866605
10615,Ba3Ho2Cu2PtO10,-2.544004906
10616,BaLi2SiO4,-2.995114002
10617,Ba5P3ClO12,-3.316505975
10618,BaZnTeCl2O3,-2.131501829
10619,BaLa4Cu5O12,-2.456146165
10620,Ba6Ru3(ClO6)2,-2.444518512
10621,Ba3LaRu2O9,-2.599246014
10622,Ba5Ru2Br2O9,-2.409087027
10623,Ba3Cr2WO9,-2.763539456
10624,BaNaNdSi2O7,-3.367417549
10625,Ba9LiSi10C(ClO4)7,-3.207292373
10626,Ba3NaNd3(Si3O10)2,-3.485259647
10627,BaNa2Nd2Si4CO15,-3.198819018
10628,KBaYSi2O7,-3.399343952
10629,BaLa2Te5O14,-2.336182609
10630,Ba9Nb2CN10O,-1.173571387
10631,Ba17Y16Zn8Pt4O57,-2.985096428
10632,BaMgSiO4,-3.319775744
10633,BaCa2C2(O3F)2,-3.050597107
10634,Ba4Ho(RuO4)3,-2.540602266
10635,Ba6Nb14Si4O47,-3.212457668
10636,Ba3ScCO3F7,-3.733814897
10637,Eu4Ba4Zn3PtO15,-2.57454928
10638,BaHgRuO5,-1.758110639
10639,Ba4Nd2Cu2O9,-2.72686542
10640,BaNbTePO8,-2.758706067
10641,BaPb2C2(O3F)2,-2.365607825
10642,Ba6Na2Si4O15,-3.231480482
10643,Cs4Ba(PO3)6,-2.804325456
10644,Ba4Na2CaTi3Si4(SO13)2,-3.171282261
10645,Ba2BiRuO6,-2.209789997
10646,Ba3ZrRu2O9,-2.692180803
10647,Ba2Cu4Te4Cl4O11,-1.659879022
10648,Ba4Tl2Cu2HgO10,-1.86474108
10649,Ba17Er16Zn8Pt4O57,-3.019882828
10650,BaNa2Ti2(Si2O7)2,-3.236909347
10651,BaV2CuO7,-2.373912324
10652,Ba5Ru2ClO9,-2.455962315
10653,Ba6Na2Mn2Ru2O17,-2.34867041
10654,Ba2Fe2Se2OF2,-2.322182979
10655,Ba2MnNiClF7,-3.22586491
10656,Eu3Ba2Mn2(CuO6)2,-2.450916638
10657,Tb2BaMn2O7,-3.032202262
10658,BaVSi2O7,-3.123600243
10659,BaCaVP2O9,-3.079943008
10660,Ba2V3BiO11,-2.667543029
10661,BaVCu4P4O17,-2.289911882
10662,TbBaMn2O6,-2.706772074
10663,Ba2V5(PO6)4,-2.706773536
10664,Ba6Na2Cr2Ru2O17,-2.423058776
10665,Ba4NdMn3O12,-2.641773711
10666,Ba3NbFe3(SiO7)2,-2.886705295
10667,Ba2La2Mn(WO6)2,-2.945632477
10668,Ba3V2(PO5)3,-3.008284717
10669,BaMoSeO6,-2.209090987
10670,Ba2VP2O9,-3.092341319
10671,Ba2MnSi2ClO7,-3.084259292
10672,Eu2Ba2ZnPtO8,-2.486001979
10673,Ba2Mn3(SeO3)6,-1.852836149
10674,BaMo4(PO8)2,-2.399272772
10675,Ba3ErMn2O9,-2.764623128
10676,Ba4NaMn2O9,-2.485451658
10677,Ba3Mo2(P2O9)2,-2.891661353
10678,BaFe2P2O7F2,-2.863722257
10679,BaMo2(PO4)4,-2.65714109
10680,KBa3Ca4V7Cu3O28,-2.629729587
10681,BaMo(PO4)2,-2.855980885
10682,BaMo2Se2O11,-1.992098239
10683,BaSr2(PN2)6,-1.086364269
10684,Ba2Li3NbN4,-0.930821308
10685,TaBe12,-0.152302272
10686,Be12W,-0.109752532
10687,Be12Nb,-0.159471569
10688,Na2BeH4,-0.315928413
10689,Be22Re,-0.074040976
10690,Ba14Na7CaN6,-0.39998907
10691,Ba14Na21CaN6,-0.27152741
10692,BaLi2(MgSi)2,-0.309451539
10693,Be12V,-0.115191679
10694,Be12Pt,-0.103953672
10695,Ba2CaTl2(CuO4)2,-1.871286329
10696,BaP4(W2O7)8,-2.31661903
10697,BaGd2Mn2O7,-2.771948559
10698,Ba3Ce2C5O15F2,-2.844247999
10699,Eu8Ba5Zn4O21,-2.79839401
10700,BaP2(XeF5)4,-2.176296819
10701,Ba3La2C5O15F2,-2.904779044
10702,BaBi12Mo4WO34,-1.957537073
10703,Ba4LiMo2N7,-0.991942734
10704,Ba3NdRu2O9,-2.587604313
10705,BaTe2Mo2(HO6)2,-1.942314747
10706,Ba2SmSbO6,-3.055843802
10707,TbBa4(RuO4)3,-2.530731379
10708,Ba5Tm8Zn4O21,-3.29626851
10709,Ba3SmRu2O9,-2.609422342
10710,Ba2Ti(SiO4)2,-3.458507993
10711,BaLuFeCuO5,-2.558596075
10712,BaY2ZnO5,-3.248276976
10713,Ba2LuRuO6,-2.900789334
10714,Ba2Nd(CuO2)3,-2.220178606
10715,BaMo2(PO6)2,-2.566382136
10716,Ba2LaTa(CuO4)2,-2.793814121
10717,Ba2Ho(CuO2)3,-2.255856077
10718,Eu2Ba2Ti2Cu2O11,-2.856771807
10719,Ba2InRuO6,-2.299770564
10720,BaLi2P2O7,-2.977078936
10721,Ba2TlCuHgO5,-1.716186956
10722,Ba2Ho(CuO2)4,-2.056581754
10723,Ba2ErCu3O7,-2.199318711
10724,Ba2LaCu3O7,-2.175292527
10725,EuBa2Cu3O7,-2.03456994
10726,Ba2CaFe2CuF14,-3.313387191
10727,BaNd2(MoO4)4,-2.693001891
10728,Ba2Sm(CuO2)3,-2.234786446
10729,BaLaNiRuO6,-2.32833936
10730,Ba2ErSbO6,-3.12353868
10731,BaTm2ZnO5,-3.310235387
10732,TbBa2NbO6,-3.466119046
10733,TbBa2SbO6,-3.100166063
10734,Ba2CoSe2(ClO3)2,-2.107662242
10735,Ba3CeRu2O9,-2.682404234
10736,LiTaBe,1.310892373
10737,BeGe2Te,0.61704393
10738,BeTcSe,0.567212972
10739,KBePt,0.72836049
10740,BeInSi2,0.710121862
10741,SrScBe,1.284988507
10742,YScBe,0.881131833
10743,CaHfBe,0.716877295
10744,LaBeOs2,0.663932163
10745,Be2CdP,0.706813668
10746,Be2ReCl,0.973697738
10747,BeInBi,0.702870707
10748,BeCuBr,0.74356257
10749,BeBiOs2,0.959247808
10750,HfBe2Bi,0.842452339
10751,Be2HgTe,0.807589195
10752,BeW2Cl,0.877381579
10753,Ba3MgTa2O9,-3.432275356
10754,Ba2CaTlCu2O7,-1.978191812
10755,TbBa3Ru2O9,-2.641071864
10756,Ba2CoC2(O3F)2,-2.64832745
10757,Ba4Sm2Cu2O9,-2.745740566
10758,Rb2BaPt2(CN)8,-0.346318362
10759,BaC2S2(OF)6,-2.201771386
10760,BaMo2P3O14,-2.624135697
10761,Ba2CaCr2CuF14,-3.425746219
10762,Ba5Er8Zn4O21,-3.282074445
10763,Ba2CaV2CuF14,-3.474324137
10764,Ba4Pr(RuO4)3,-2.478990444
10765,BaP2(HO)4,-1.81479321
10766,Ba2YRuO6,-2.848588683
10767,Ba4Y(CuO3)3,-2.390908034
10768,Ba2Y(Cu2O3)2,-1.829675202
10769,BaH2CSNClO,-1.400554709
10770,BaCo2P2H2O9,-2.351451767
10771,BaSm2ZnO5,-3.20023494
10772,Ba3Li2V2Cl4O7,-2.769727572
10773,BaEr2ZnO5,-3.29539507
10774,Be5Pd,-0.324176947
10775,BaHo2ZnO5,-3.286560227
10776,Ba3MgRu2O9,-2.445029964
10777,Ba2Ca2Tl2Cu3O10,-1.918240105
10778,Ba8Re2(WO8)3,-2.724660031
10779,Ba2YTlCu2O7,-2.209013254
10780,Ba2Er(CuO2)4,-2.057744581
10781,Ba2HoRuO6,-2.871110159
10782,Ba2HoCu3O7,-2.203402458
10783,Ba2ErRuO6,-2.878738782
10784,Ba3SrRu2O9,-2.445890693
10785,Ba2ErNbO6,-3.493231742
10786,BaTi(SiO3)3,-3.40166885
10787,Ba8CaY2U4O24,-3.586093966
10788,Ba2HoSbO6,-3.116668955
10789,BaNd2CuO5,-2.975421452
10790,Ba4Zr(RuO4)3,-2.573135204
10791,Pr9Be4O20,-3.203157899
10792,U4Be2C5,-0.072329625
10793,BaSi2(NO)2,-2.354692674
10794,KBa2DyBi2O9,-1.590788171
10795,Ba4Ta2TiZnO12,-3.291739422
10796,Ba3Na7Ti3Nb7O30,-3.017529706
10797,K4BaTa6(Si2O13)2,-3.261378372
10798,Ba9La9Cu9Ru9O46,-2.163349984
10799,K6Ba3Ta12(Si2O13)4,-3.306034547
10800,BaNaIn2(PO4)3,-2.704132473
10801,Ba3LiTa3Ti5O21,-3.467115916
10802,Ba3La3Ti4NbO18,-3.555325604
10803,Ba6Ti2Nb10Si8O51,-3.290897581
10804,Ba8Tl2Bi2Pb4O17,-2.0828548
10805,Tb8Ba16Nb5(SnO16)3,-3.254535302
10806,KBa6Zn4(GaO3)7,-2.483331031
10807,Ba3Si3N5ClO,-1.753916506
10808,BaSrCuCO4,-1.367753178
10809,BaLa2ZnO5,-3.20501643
10810,Ba5Ho8Zn4O21,-3.273561526
10811,Ba2BeS(OF)4,-2.974894066
10812,Yb16Ba17Zn8Pt4O57,-2.609758484
10813,Ba6Ca6Tl5Cu9O29,-1.963700401
10814,Ba3Y2Cu2PtO10,-2.527195596
10815,Ba5Na2Ru3O14,-2.267413521
10816,Ba4LaGe3SbSe13,-1.181967773
10817,Ba3Gd2(PS4)4,-1.60089958
10818,Ba4NaCu(CO5)2,-2.472100147
10819,Yb3K2Ba6Bi5O24,-2.28889597
10820,Ba4La2Ti3Nb2O18,-3.48033981
10821,Ba4TlBiPb2O9,-1.982101732
10822,Ba2CeC3O9F,-2.827508147
10823,Na16Be8H15,0.102214847
10824,K3Ba2Pr2(BiO5)3,-2.162366178
10825,Ba10Mg3ZrTa6O30,-3.34025703
10826,Tb3Ba6Nb(SnO9)2,-3.030573151
10827,Ba20Y10Cu(Ru3O20)3,-2.810225931
10828,Ba2La3Si3O12F,-3.692064894
10829,Ba3LiTi5Nb3O21,-3.352437202
10830,Ba2CaCu2HgO6,-2.026890414
10831,BaLa2Mn3O9,-2.83377489
10832,BaLaMnRuO6,-2.540506441
10833,K2BaNi(NO2)6,-1.254097271
10834,Ba10Pr5Nb(Sn2O15)2,-2.923374547
10835,K6Ba2CaU6O24,-3.352612886
10836,BaNa5Ca7P6(O8F)3,-3.226615548
10837,Ba2Ca2Zn5Fe3O14,-2.064227014
10838,BaLa5TiCr5O18,-3.224126983
10839,BaNa5LiCo5F18,-2.816027558
10840,Ba3La7Mn2(Co4O15)2,-2.511161347
10841,Ba3HoUFeO9,-3.096086563
10842,Ba4NbP4(O9F)2,-2.7758723
10843,KBaIn2(PO4)3,-2.730561769
10844,Ba8Ce7YHO24,-3.500288739
10845,Ba9La3Mg5Nb7O36,-3.304735246
10846,BaLa7Mg5Nb3O24,-3.48867076
10847,Ba3LiTi5(SbO7)3,-2.991474845
10848,BaLaTiCuO6,-2.938914999
10849,Ba3La9Mg7Nb5O36,-3.392389001
10850,Ba18Pr9Sn4Sb5O54,-2.912275672
10851,Ba2La2MgTi3O12,-3.583035698
10852,Ba7Na3Ti7Nb3O30,-3.286701837
10853,Ba13Ru10BrO36,-2.190410718
10854,BaNaP3(HO2)6,-2.279403601
10855,BaH8C6(N3O4)2,-1.210138584
10856,BaCu2P2H2O9,-2.192425304
10857,BaLaMnInO6,-2.648083559
10858,Ba3La7Ti3Cr7O30,-3.262691405
10859,BaPHO4,-2.84221505
10860,Ba2CaY(Co4O7)2,-1.669255884
10861,Ba5SrLa2Fe4O15,-2.812958271
10862,Ba5SrNd2Fe4O15,-2.79349103
10863,BaLa3TiCr3O12,-3.245396649
10864,BaVCdP2O9,-2.739033751
10865,Ba3Li2Mo4P6(ClO14)2,-2.687947961
10866,KBaLiZnF6,-3.297333049
10867,Ba3CuP2Br3O7,-2.327634578
10868,Ba3La7Mn(Co3O10)3,-2.463723305
10869,Ba2Sm2Fe4O11,-2.650725595
10870,Ba3La2Ti3Cr2O15,-3.351284663
10871,Ba2La3Ti2Cr3O15,-3.272640832
10872,Ba3LaIn(WO6)2,-2.799911336
10873,Ba3La3Mn2(WO6)3,-2.865719701
10874,Ba3LaZnReWO12,-2.748622598
10875,BaLaFe2Cu2O11,-1.499180955
10876,BaNb2Fe2(PO4)6,-2.805270931
10877,Ba2La2Fe2Cu2O11,-2.372931084
10878,Ba3DyUFeO9,-3.09893742
10879,BaP2(HO2)4,-2.378920846
10880,BaP2(HO4)2,-2.298519724
10881,BaH6C2S2N2O3,-1.09675978
10882,Ba2Na7Ti16Bi7O48,-2.926451651
10883,Ba4Na3Nd3P6(O12F)2,-3.30357457
10884,BaH8PtC4(NO)4,-0.893710999
10885,BaSiP4(HO7)2,-2.705549278
10886,Li66Be24H35,-0.04454514
10887,BaRe2H12C3N6O11,-1.344567472
10888,BaZn3P4(H7O9)2,-1.728909761
10889,BaCaP2(HO4)2,-2.843522055
10890,Ba2Fe3P6HO22,-2.693752496
10891,BaV2H2(Se2O7)2,-1.816247185
10892,BaNaFe4P6H3O25,-2.352062812
10893,Ba3CaZrWO9,-3.075875312
10894,Ba4Y2Cu4W2O17,-2.388818185
10895,KBaFe2(PO4)3,-2.699705077
10896,Ba2La4Mn5SnO18,-2.829080942
10897,BaLa3Mn4O12,-2.877098054
10898,Ba4La8Mn11SnO36,-2.827379955
10899,Ba2La6Mg4Ti3WO24,-3.288306645
10900,BaLa4TiCr4O15,-3.233358218
10901,Ba4La6Mn5In5O30,-2.712560994
10902,Ba2V3P6HO22,-2.846821582
10903,Ba4La6Mn(Co3O10)3,-2.268776484
10904,KBaCr2(PO4)3,-2.804565127
10905,NaBeO2,-2.208352751
10906,K2Be2O3,-2.403527076
10907,BaBePO4F,-3.342923917
10908,Na2Be2O3,-2.427195068
10909,CaBe3O4,-3.109423945
10910,Cs2BeO2,-2.000566854
10911,Na6BeO4,-1.756567364
10912,Rb2Be2O3,-2.396174351
10913,K3BaPCO7,-2.606031619
10914,Ba4LiY2Cu5O14,-2.269783539
10915,Be(GaO2)2,-2.524176182
10916,Ba2CaP4(H3O8)2,-2.608706324
10917,Ba2GaP4HO14,-2.846787862
10918,Ba4Li4Ti19O44,-3.409289697
10919,Ba3V2P6(HO4)6,-2.638581117
10920,Ba2LiVP2O9,-2.968916127
10921,BaLiCaVP2O9,-3.007331016
10922,BaH9IO5,-1.552890838
10923,Ba2LiTi11O24,-3.472892513
10924,Ba4Li6Ti19O44,-3.368696302
10925,BaNa3PCO7,-2.556085103
10926,BeH2,-0.152230231
10927,Mn2BeO4,-2.301517399
10928,Be(Bi3O5)4,-1.637231023
10929,Ba4Y2Cu5O14,-2.215091324
10930,Ta2BeO6,-3.204117529
10931,Ba6Li2Ti7(Sb3O14)3,-2.736493706
10932,Ba6Ti7Nb9O42,-3.336653137
10933,Ba8LiNb7O24,-3.186857976
10934,Ba6Li2Ti7Nb9O42,-3.280243242
10935,Ba6Li2Ta9Ti7O42,-3.427063262
10936,Ba6Na2P2Ru2O17,-2.744027739
10937,Ba14Y7(Cu10O21)2,-2.258801124
10938,Ba14LiY7(Cu10O21)2,-2.268436651
10939,Ba6Li2Ti16O39,-3.480693268
10940,BaSr7V8(Si2O7)8,-3.145823073
10941,Rb2Be4Pt3,0.124120609
10942,BaNd2PdO5,-2.987630015
10943,BaSm2PdO5,-3.023100413
10944,MgBe13,-0.009456411
10945,Ti2MnBe,-0.192799296
10946,BeGaRh2,-0.678707189
10947,LiBePd2,-0.55569748
10948,LiBePt2,-0.692307892
10949,LiBe2Ir,-0.382173495
10950,Sc2BeRu,-0.339347471
10951,Sc2BeTc,-0.130645386
10952,Be2RhPt,-0.777807275
10953,BeRu2W,-0.210302012
10954,BaNaH3Pd,-0.487230204
10955,BeCo2Ge,-0.306672496
10956,Be3Ir,-0.466307172
10957,Ba2VP2O11,-2.541598927
10958,Be3Rh,-0.451958969
10959,Be2NiRh,-0.59782516
10960,MnBe2Ir,-0.450002593
10961,MnBe2Pt,-0.47697927
10962,MnBe2Rh,-0.423201965
10963,Be2PdPt,-0.692833623
10964,Be2IrPd,-0.600658553
10965,Be2RuPt,-0.524798081
10966,Be2CuRu,-0.252475649
10967,HfBeRh2,-0.785858889
10968,Be3Ni,-0.283435685
10969,Be2NiIr,-0.576229168
10970,Be2CuRh,-0.423235153
10971,BaMgTe2O7,-2.245259462
10972,Be3Ru,-0.336626219
10973,BeSiNi2,-0.528838255
10974,Be2CuPt,-0.46984028
10975,YbBe13,-0.124208824
10976,BeCo2Si,-0.59503624
10977,BeSiIr2,-0.64932411
10978,Be2PdRh,-0.66006525
10979,TiBe2Ir,-0.558806309
10980,TiBeRh2,-0.802803122
10981,TiBeCo2,-0.428128079
10982,TiBeIr2,-0.798828502
10983,Be2NiPt,-0.64404909
10984,BeVCo2,-0.288367113
10985,BaNaScSi2O7,-3.354937102
10986,BaNaP3H3(NO2)3,-1.993290726
10987,BeSiOs2,-0.300270385
10988,TaBeRu2,-0.37039211
10989,BeGaIr2,-0.477631111
10990,Be2CoPt,-0.594675771
10991,Be2CoNi,-0.414446879
10992,Be2CuIr,-0.398089868
10993,Be2CoIr,-0.448527339
10994,BeVOs2,-0.25717697
10995,Be2IrPt,-0.711213655
10996,BeSiRh2,-0.821502247
10997,BeNbRu2,-0.274009965
10998,BeSiRu2,-0.558773385
10999,BeCrRu2,-0.14188963
11000,BeVRu2,-0.360269653
11001,TbBaMn2O5,-2.807794952
11002,Tb2Ba2Mn4O11,-2.788620321
11003,Ba3Er2Cu2PtO10,-2.547806732
11004,Ba2YC2(O2F)3,-3.214453621
11005,Ba2GdC2(O2F)3,-3.204026145
11006,Ba2MgSi2O7,-3.381097337
11007,Ba2Cu(PO4)2,-2.887025584
11008,BaDyCuTe3,-1.242570678
11009,NaBeSb,-0.174619395
11010,LiBeSb,-0.249436728
11011,BaY2PdO5,-3.049118502
11012,TaBeO3,-2.121145317
11013,TmBeO3,-2.901963482
11014,SrBeF4,-3.942448417
11015,ScBe13,-0.176697747
11016,MnBe3,-0.185365903
11017,KBeO3,-1.214939051
11018,Lu2BeOs,-0.187955689
11019,Ba4Sm4Zn3PtO15,-2.842878014
11020,NdBe13,-0.172909335
11021,NpBeO3,-2.963106746
11022,Ba3NaRuO6,-2.459475438
11023,Mn3Be,-0.009609257
11024,KBeH3,-0.190126024
11025,RbBeH3,-0.180748411
11026,RbBeO3,-1.068692815
11027,NdBeO3,-2.88719937
11028,BaSm2PtO5,-3.022505564
11029,Li3Be,0.233247055
11030,Tb2BaPdO5,-3.072271287
11031,LuBe13,-0.190978987