id,Composition,FormationEnergy
13906,RbCO2,-1.911843999
13907,Rb2CO3,-2.100388636
13908,Tl2C3O4,-1.136525412
13909,Sr2Cu2Te(BrO3)2,-1.826251841
13910,C37F21,-0.761798481
13911,NaH12C4S2BrO2,-0.611401003
13912,Cu(CO)4,-0.817540127
13913,K2HgC2S2(BrN)2,-0.66247051
13914,Tl2OsCBr2OF3,-1.426316403
13915,CuH8C2Br3NO,-0.557108713
13916,TlCO2,-1.421860007
13917,CIF3,-1.484924933
13918,Tl2CS3,-0.415706272
13919,CdHg4C6S6(Br2N3)2,-0.1497344
13920,Ca(CO2)2,-2.268248029
13921,CF2,-1.585997263
13922,Zn(CO2)2,-1.633240933
13923,Dy2CuTe5Br2O13,-1.95324785
13924,H9C3S2BrN2,-0.172924101
13925,ErCuTe2BrO6,-1.924782908
13926,Ta2CS2,-1.194929333
13927,KCO2,-1.920661236
13928,K2HgBr2(NO6)2,-0.982780364
13929,Cs4CO4,-1.583881736
13930,C3O2,-0.559771201
13931,Ti3SiC2,-0.820460242
13932,Si3PH27C9BrN2,-0.323727418
13933,NiCN2,0.141135067
13934,La5C2I9,-1.332323792
13935,PrCoC2,-0.241467767
13936,KHgC2,0.192492847
13937,Sc3RhC4,-0.494572549
13938,TlC,2.107959351
13939,CdH12C4Br3N,-0.421355156
13940,Ce2WC2,-0.25892588
13941,Pr5C2Cl9,-2.166052568
13942,PaC,-0.450527509
13943,Sr4CN4,-0.857356323
13944,Er2Fe14C,-0.074523287
13945,La2C2Cl,-1.061514568
13946,La7C3I10,-1.264774741
13947,Pr(C2N3)3,-0.204908322
13948,CoCN2,0.172653424
13949,La10C4I15,-1.291793927
13950,ZnH16C4(Br2N)2,-0.501328538
13951,KC2N3,-0.398463785
13952,Dy12C6I17,-1.132971782
13953,Lu2Fe14C,-0.082482152
13954,FeCN2,0.047942957
13955,Lu2(CN2)3,-0.997985097
13956,La8C8Cl5,-1.180768625
13957,Pr2WC2,-0.165640301
13958,Sm2(CN2)3,-0.968970957
13959,La3CI5,-1.341941232
13960,RbC8,-0.035228288
13961,CsPr9Nb(Br5N2)3,-1.851844613
13962,ErRh3C,-0.536338302
13963,Nd2Fe14C,0.243623413
13964,Yb2(CN2)3,-0.59228814
13965,Ce7C3I10,-1.099784859
13966,Ce2Ni22C3,-0.121085155
13967,Ni3Mo3C,-0.049508446
13968,Sm(C2N3)3,-0.208872189
13969,Nd2WC2,-0.202276808
13970,Sm2C3,-0.205774984
13971,La4C2Cl5,-1.964126914
13972,La3C2I3,-1.060599705
13973,Si(H3C)2,-0.286032129
13974,HgH8C2Br3N,-0.478497306
13975,CdH16C4(Br2N)2,-0.49350196
13976,Sc3IrC4,-0.500062478
13977,SnH16C4(Br3N)2,-0.488041627
13978,Y11(Ni10C)6,-0.252590457
13979,La14C14Cl9,-1.195952198
13980,La7Os4C9,-0.281389415
13981,Tm2Fe14C,-0.078389161
13982,Tl2CN2,-0.040937876
13983,Pr4C2Cl5,-1.850296762
13984,Dy5C2I9,-1.224100873
13985,SnH46C18(Br2N)2,-0.312451435
13986,La3C3Cl2,-1.217676979
13987,NaC64,0.010553244
13988,Dy2Fe14C,-0.065972801
13989,Ho2Fe14C,-0.07036555
13990,Nd12C6I17,-1.151148699
13991,La12C6I17,-1.240128348
13992,La20C20Cl13,-1.20258105
13993,Pr3CCl5,-2.151320814
13994,HgH10C3Br3N,-0.405611873
13995,La11C11Cl7,-1.190141242
13996,SnH18C6Br3N,-0.348225484
13997,La2Ni22C3,-0.108021319
13998,Lu2CCl2,-1.808485827
13999,Ce3CI5,-1.165476339
14000,Hg(CN)2,0.420776131
14001,KC4N3,-0.040461498
14002,Ce3CCl5,-2.086696443
14003,EuC10,0.215087234
14004,Mn(C2N3)2,0.058535436
14005,GdRuC2,-0.187092228
14006,Ce8C8Cl5,-1.126268556
14007,SnH14C4(Br2N)2,-0.432058099
14008,KH13CBrNO7,-1.140221592
14009,CdH8C2Br3N,-0.523164228
14010,H10C5SeS2BrN3,-0.226689313
14011,InH24C6(Br2N)3,-0.47752611
14012,FeH14C3Br3NO2,-0.685360804
14013,HC2,-0.050441963
14014,Nd2MoC2,-0.181436981
14015,CdSi3PH27C9Br2,-0.367445628
14016,GaH19C8,-0.227777717
14017,Tl(CO)2,-0.894055142
14018,Sc2CrC3,-0.408396315
14019,ScCoC2,-0.321595496
14020,La2Ni5C3,-0.298853035
14021,Cs2CO3,-2.07134828
14022,Ru(CO)4,-0.966707183
14023,La5C2Cl9,-2.293787116
14024,Gd6C3Cl5,-1.574293106
14025,Zn(C2N3)2,0.020056908
14026,ScIr3C,2.956151402
14027,Ce5C2Cl9,-2.06589369
14028,TiC,-0.807341148
14029,RbC2N3,-0.269625079
14030,Eu(C2N3)3,-0.082309271
14031,CeRhC2,-0.253574519
14032,Co2W4C,-0.056607878
14033,Os(CO)4,-0.975713242
14034,Cr21(MoC3)2,-0.088091068
14035,Cr21(WC3)2,-0.08721511
14036,Hg12SbBr(ClO3)2,-0.683092435
14037,Y2H2C,-0.590949831
14038,C17F5,-0.326479367
14039,C7F3,-0.56978176
14040,Pr7C3I10,-1.175012946
14041,C13Cl3,0.086792588
14042,C20Cl3,0.165452868
14043,La4C5Cl2,-0.942128835
14044,C10F3,-0.309276566
14045,C28Cl5,0.166847216
14046,Os5C17O16,-0.901574856
14047,Co3C10O9,-0.693375559
14048,Cr(CO)6,-0.869347321
14049,V(CO)6,-0.854595548
14050,Os6C19O20,-0.968957263
14051,C5N4,0.558146269
14052,InRe2C10BrO10,-1.015285916
14053,C2IO,-0.148213045
14054,Er5Si3C,-0.58570228
14055,UWC2,-0.298824968
14056,Ru4C14O13,-0.871684581
14057,Ir3(CO)8,-0.908318993
14058,Nb8Zn4C3,-0.112959514
14059,V2CN,-0.797764184
14060,CIF5,-1.535571845
14061,Nd10Si10BrN17O9,-2.236814871
14062,Os5(CO)16,-0.935788607
14063,Os5(CO)19,-0.956360493
14064,W6CCl16,-1.174409836
14065,Tc(CO)5,-1.034693842
14066,Pr2C3,-0.141354582
14067,Rh8C20O19,-0.84394214
14068,C2F,-0.673977021
14069,Zr10C9,-0.802047675
14070,Na2Pr4Br9NO,-2.047527997
14071,W9C4,0.002520357
14072,Tb2C,-0.259393847
14073,U2IrC2,-0.328675623
14074,Ce10Si10BrN17O9,-2.168976104
14075,Ti3Zn3C,-0.427816097
14076,CdH8C2S2(BrN2)2,-0.560797357
14077,Tb2C3,-0.258525691
14078,H6CSBrN3,-0.427567085
14079,MgH20C4Br2(N4O3)2,-0.28107592
14080,Zr3Zn3C,-0.473323666
14081,Fe3PWC15BrO15,-0.647474231
14082,Na2H4PtC4Br2(N2O)2,-0.600116961
14083,H8C2SeS2(BrN2)2,-0.417162909
14084,MgH40C10Br2(N2O)10,-0.835331178
14085,Tm2FeC4,-0.317125202
14086,Ta2C,-0.601725803
14087,P2H24PdC12(BrN3)2,-0.217412693
14088,Ho3SnC,1.473790016
14089,ScRu3C,-0.277972009
14090,La3TlC,-0.29370552
14091,Pr3TlC,1.595660656
14092,KZnH4Br3O2,-1.321071968
14093,Hf3Zn3C,-0.469495402
14094,Cr23C6,-0.080801182
14095,LiH20C8BrO4,-0.563579899
14096,Ni3C,0.057877968
14097,P(H3C)3,-0.277268003
14098,Mn2(CO3)3,-1.82588829
14099,UVC2,-0.38603819
14100,Gd2CF2,-2.527718824
14101,Pr3GaC,1.210655819
14102,Ni3GeC,0.089777529
14103,LuC2,-0.186382162
14104,ErCoC,-0.33793335
14105,Ho2Cr2C3,-0.321700738
14106,NdRhC2,-0.275945116
14107,Sc3GaC,-0.672860079
14108,Sc3InC,-0.676061144
14109,Ho4Ni13C4,-0.354602765
14110,Yb4Ni13C4,-0.305550232
14111,Nd2ReC2,-0.263215475
14112,Nb4Ni2C,-0.325043038
14113,Gd2ReC2,-0.354537142
14114,Lu4Ni13C4,-0.363826925
14115,Gd4Ni13C4,-0.317682326
14116,La2PC,-0.877270085
14117,Gd5(C2Cl)3,-1.02804533
14118,RbZnH2Se2BrO6,-1.460984903
14119,Sc3OsC4,-0.439056928
14120,Ta4Ni2C,-0.423508177
14121,SmRhC2,-0.297052079
14122,NdCoC2,-0.266350812
14123,Yb11(Ni10C)6,-0.23966131
14124,Sc3RuC4,-0.469860128
14125,Ho2CF2,-2.621841718
14126,HoCoC2,-0.350675633
14127,Er2MnC4,-0.277828256
14128,PrNiC2,-0.234796087
14129,Y4C5,-0.322913144
14130,Y4C7,-0.277359418
14131,Er2C3,-0.268569805
14132,Tm2C3,-0.27163092
14133,Yb2C3,-0.124001027
14134,Zn3C,1.042260738
14135,U3C,0.469740514
14136,Tb2ReC2,-0.407527774
14137,Sm2Fe17C3,-0.053655964
14138,SiC3,2.228591751
14139,Ge3C,1.39378878
14140,Hg3C,1.522122513
14141,Lu2Mo2C3,-0.358427879
14142,Lu2Fe17C3,-0.089770868
14143,Ni2W4C,-0.086169179
14144,Re2C,-0.033363425
14145,Re3C,1.382416689
14146,PuNiC2,-0.077292394
14147,Li3C,0.473525013
14148,Hf3C,0.855556324
14149,K2PtC2,-0.094037982
14150,H6PbCBr3N,-0.634135899
14151,Na3C,1.056858229
14152,Pr2Fe17C3,-0.017031277
14153,Si(H3C)4,-0.318194904
14154,Sm2ReC2,-0.322915048
14155,Ta2CN3,0.113632326
14156,W3C,1.27899405
14157,Yb2Cr2C3,-0.167049272
14158,ZnCO3,-1.834530792
14159,Ce2ReC2,-0.291659055
14160,H2C,-0.269970501
14161,HC,-0.068400509
14162,CO3,1.736807156
14163,HC3,0.01616569
14164,Ti5Si3C,-0.819340267
14165,HC6,0.014603263
14166,H2C3,-0.045576956
14167,VFe11C4,0.249951203
14168,V2GeC,-0.48769572
14169,Ti2GeC,-0.809790889
14170,Y3TlC,-0.491541686
14171,Ti2CdC,-0.535134788
14172,Co2(CO3)3,-1.532656336
14173,Er2FeC4,-0.308988886
14174,Nb2PC,-0.74529299
14175,Nb2CS,-0.918254742
14176,YC,0.041870846
14177,ThCoC2,-0.311588443
14178,TbFeC2,-0.260998761
14179,SmNiC2,-0.290054864
14180,SmFeC2,-0.210464942
14181,SmCoC2,-0.286169553
14182,Sc2MnC,0.82359571
14183,PrRhC2,-0.260459614
14184,PuCoC2,-0.114870072
14185,H2CO3,-1.583085926
14186,Na2H3CO6,-1.290526222
14187,ZnHCO4,-1.50368275
14188,ErFeC2,-0.278828687
14189,CeSi2Mo2C,-0.501145651
14190,CoHCO4,-1.505967628
14191,HoCr2Si2C,-0.460404071
14192,Gd2C(NO)2,-2.434447132
14193,Tb2Re2Si2C,-0.624256187
14194,Pr2Fe2Si2C,-0.580308531
14195,Y2Re2Si2C,-0.62521762
14196,Nd2Re2Si2C,-0.56527976
14197,Dy2Re2Si2C,-0.625259926
14198,La2Re2Si2C,-0.553425865
14199,Sm2Re2Si2C,-0.593501974
14200,Sm2Fe2Si2C,-0.640443278
14201,Ce2Re2Si2C,-0.553569677
14202,Ce2Fe2Si2C,-0.599243523
14203,La2Fe2Si2C,-0.587096352
14204,Ho2Fe2Si2C,-0.698035211
14205,Ho2Re2Si2C,-0.623118553
14206,Y2Fe2Si2C,-0.691965203
14207,Ce2C(NO)2,-2.336739348
14208,Er2Fe2Si2C,-0.700975178
14209,Lu2Fe2Si2C,-0.698715431
14210,Gd2Re2Si2C,-0.59977091
14211,Er2Re2Si2C,-0.619802311
14212,Th2Fe2Si2C,-0.630071406
14213,Pr2Re2Si2C,-0.54505414
14214,K2CN2,-0.629602303
14215,SrC2(SN)2,-0.759372241
14216,CaC2(SN)2,-0.708957067
14217,Dy2Fe2Si2C,-0.694564934
14218,K2Pd(CN)4,-0.260959641
14219,KTl(CN)4,0.222167389
14220,CoHgC4(SeN)4,0.204696935
14221,Dy2C(NO)2,-2.508866554
14222,Tm2C(NO)2,-2.541532358
14223,Yb2C(NO)2,-1.659608822
14224,Na4CO4,-1.748792665
14225,CsCOF3,-2.354077861
14226,GaMo4CS8,-0.642765198
14227,UTl4C3O11,-2.046203801
14228,CsPr(CO3)2,-2.558170737
14229,TlCo(CO)4,-0.803657941
14230,LiCo(CO)4,-0.990796667
14231,FeCO3,-1.676325898
14232,CeCO3F,-3.041612084
14233,Ho2C(NO)2,-2.517933708
14234,Li2FeCu(CN)6,0.129380371
14235,Na2CO3,-2.074906443
14236,PbC2(SN)2,-0.194411928
14237,K2Cd(CN)4,-0.199564759
14238,Fe3W3C,-0.028453482
14239,Cs2LiFe(CN)6,-0.270593324
14240,FeSn2(CN)6,0.078275967
14241,FePb2(CN)6,0.045929326
14242,PrCr2Si2C,-0.416785936
14243,FeNi2(CN)6,0.538132176
14244,PrSi2Mo2C,-0.436184945
14245,FeCo2(CN)6,0.44655991
14246,EuC2(SN)2,-0.722689191
14247,Eu2C(NO)2,-1.901464931
14248,FeCu2(CN)6,0.540034718
14249,CsEr6CI12,-1.254552627
14250,YH3(CO2)3,-1.791574745
14251,H9C4NO4,-0.848136653
14252,H(CO)2,-0.935082686
14253,KH3(CO2)2,-1.448740421
14254,H2CO,-0.720182875
14255,NaHCO2,-1.584451816
14256,CaH2(CO2)2,-1.837297429
14257,CaCuH4(CO2)4,-1.485659646
14258,RbH3(CO2)2,-1.447621294
14259,KHCO3,-1.908750034
14260,Cu3H2(CO4)2,-1.366107003
14261,SiH9C4F3,-0.727928213
14262,SmH3(CO2)3,-1.802104432
14263,H4CN2O,-0.793945236
14264,NdH3(CO2)3,-1.802061913
14265,Na3H5(CO4)2,-1.791310842
14266,KMgH9(CO5)2,-1.753103093
14267,H4CSN2,-0.487708204
14268,GaH18C3(N3F2)3,-1.066165896
14269,CoH9(CN2)3,-0.324611031
14270,H6CN4O,-0.4926781
14271,HCNO,-0.969137266
14272,H5CN3O4,-0.915547243
14273,H6CSN4,-0.291182181
14274,ZnH6(CO3)2,-1.369588029
14275,RbHCO2,-1.60591778
14276,H2C(NO)2,-0.589217091
14277,KHCN2,-0.502949172
14278,ZnH4(CO3)2,-1.52675534
14279,CdH6(CO3)2,-1.348236219
14280,Mo(CO)6,-0.904204343
14281,CoH4(CO3)2,-1.474681679
14282,MnH4(CO3)2,-1.589481698
14283,NiH6(CO3)2,-1.275737325
14284,MnH6(CO3)2,-1.431132014
14285,CNCl,0.037656394
14286,CCl2O,-1.040650536
14287,CSO,-0.982356608
14288,CS3N4,0.08993593
14289,H2CS3,-0.277051497
14290,H8CN6,-0.22335875
14291,H9CN9,-0.19752195
14292,Na2CS3,-0.808237959
14293,C2S7Cl6,-0.581659023
14294,C2(OF2)3,-1.507872586
14295,CS3N,-0.161905003
14296,NaCN,-0.306718517
14297,CS2N,-0.043338949
14298,C2S9N2,-0.274908687
14299,H2CN2,-0.2476821
14300,H4C7O,-0.218978107
14301,C2O3F2,-1.765353585
14302,CuCN2,0.182482682
14303,CuCN,0.237375343
14304,Na4C2O5,-1.795671856
14305,CaC2S2(OF)6,-2.21013158
14306,UMoC2,-0.296343402
14307,YCoC2,-0.334009201
14308,V(CrC)2,-0.185587373
14309,NaCO2,-1.896295035
14310,Cu2H2CO5,-1.292710922
14311,Pb2CCl2O3,-1.724535288
14312,Fe2W2C,0.133719622
14313,CaH12CO9,-1.649172369
14314,CrH9(CN2)3,-0.351485085
14315,Cs4Pr6C2I13,-1.324575508
14316,HCN,-0.151681043
14317,FeH8C4(S2N3)2,-0.369939121
14318,K3Mn(CN)6,-0.253988782
14319,C2S3N2,0.044003171
14320,K3ReC4(N2O)2,-0.761410257
14321,CsCo(CO)4,-1.02708633
14322,CdC2(SN)2,-0.183894587
14323,Ge2C2(SF2)3,-1.43833502
14324,Ge2C2(SeF2)3,-1.256365411
14325,K3Fe(CN)6,-0.256015726
14326,W(CO)6,-0.829049929
14327,CsGd(CO3)2,-2.554618426
14328,FeHgC4(SN)4,-0.098220414
14329,MnHgC4(SN)4,-0.1678983
14330,Na2CN2,-0.612226935
14331,K4H6C2O9,-1.81743122
14332,Rb4H6C2O9,-1.807227957
14333,CuH8C4O5,-0.920681126
14334,K2Cu(CO3)2,-1.869576835
14335,C2Se3N2,0.370467544
14336,RuC4(O2F3)2,-1.667530632
14337,CsHCO2,-1.613697105
14338,H8C3(NO)3,-0.80769028
14339,MgH6(CO3)2,-1.582073929
14340,FeH6(CO3)2,-1.385840232
14341,Zn3Co2(CN)12,0.027178396
14342,NaCNO,-1.224142142
14343,Y2C(NO)2,-2.474888474
14344,CoH6(CO3)2,-1.326232812
14345,PbCClO2,-1.595920578
14346,CuCSN,-0.091671511
14347,Y7C3I6O,-1.316266011
14348,H6CNF,-0.816057443
14349,CSNO3,-1.126124155
14350,SiC(ClF)3,-1.788136982
14351,K2Ca2(CO3)3,-2.491681799
14352,H12C5N2O,-0.364489704
14353,H3CS,-0.354177834
14354,CSCl2,-0.376973499
14355,YH7C4O11,-1.769956618
14356,Na2Sn(CO2)4,-1.754887224
14357,H13C4NF2,-0.618430146
14358,H12C3NF3,-0.852424174
14359,MgH2(CO2)2,-1.71562789
14360,Tl3CO3F,-1.617950497
14361,Na3H5(CO2)4,-1.504888149
14362,EuNa3(CO3)3,-2.275418738
14363,H8C3O2,-0.558766313
14364,H5CNO2,-1.008254125
14365,YbNa2C2O6F,-2.415439521
14366,CS2NF5,-1.371267798
14367,KC(NO2)2,-0.964766921
14368,C12SeF10,-0.87822747
14369,C2SClO4F3,-1.631685231
14370,H8C3S2,-0.314371649
14371,C2S(OF)4,-1.794509954
14372,Pb2CO3F2,-2.153632965
14373,KC(NO2)3,-0.89683025
14374,YbH7C3O8,-1.504951967
14375,OsC4(ClO2)2,-1.050778848
14376,NaCSN,-0.567896329
14377,TeC8(OF3)4,-1.462269869
14378,H9C3N3O2,-0.67574105
14379,C4O5F6,-1.858757037
14380,CSNF5,-1.38383059
14381,CuC3(OF)3,-1.474036134
14382,LaCN2F,-1.938627861
14383,H14C5(NO)2,-0.530750346
14384,SrH2(CO2)2,-1.839079586
14385,LiH3CO3,-1.560408293
14386,Y2SiCO7,-3.307988351
14387,NaLiCO3,-2.182863971
14388,CIClF4,-1.49404172
14389,Tl2Cu(CO3)2,-1.496033869
14390,H7C(NO)3,-0.603141776
14391,H6CN2O3,-0.725578728
14392,H14C5(SN)2,-0.319102018
14393,Na2Ca2(CO3)3,-2.480914107
14394,ScH3(CO2)3,-1.762299362
14395,TiH8C4NO10,-1.530071759
14396,ZnH2(CO2)2,-1.363977349
14397,TlHCO2,-1.219858604
14398,CaH2C2O5,-2.000670851
14399,KNd(CO3)2,-2.564670007
14400,Na(CO)2,-1.295495584
14401,CuH10(CO4)2,-1.278164972
14402,SbC(Cl2O)2,-1.33471548
14403,CS3N5Cl,0.072953975
14404,H10C3S3N,-0.374626094
14405,PtCI2O,-0.546026844
14406,H2CO2,-1.239795488
14407,C2S(NCl)3,-0.269343325
14408,H9C5NO5,-0.769261563
14409,SbCSF11,-2.264136865
14410,H16C3NF7,-1.167068088
14411,HgC2O2F3,-1.586201678
14412,KCN3O2,-0.65956478
14413,CaTeCO5,-2.255710382
14414,H8C3N2O,-0.515873077
14415,H2C3O4,-1.100121801
14416,Sn2PCO6,-2.064712009
14417,Sb4PtC4(O2F11)2,-2.217431162
14418,CaH6C2O7,-1.759350183
14419,Co3C2(SeO5)2,-1.421238927
14420,H5C2ClO,-0.570085648
14421,PH3CS3,-0.474659895
14422,KCS(OF)3,-2.094453846
14423,SrCa(CO3)2,-2.700711944
14424,KY(CO)8,-1.419322066
14425,RhC2ClO2,-0.95384369
14426,NaLa(CO3)2,-2.580664491
14427,HgCSNCl,-0.297430927
14428,CSNCl,-0.118512517
14429,H5CNO3,-1.243277247
14430,HgCS(OF)3,-1.702925112
14431,C(SN)2,-0.001341762
14432,TeC6(ClF7)2,-1.612599986
14433,H11C4NO10,-1.317546046
14434,La2C2N4O,-1.54590001
14435,TeC4(ClF3)2,-1.073923523
14436,Hg2C2N2O,0.103422469
14437,Na4UC3O11,-2.437861031
14438,MgH8C4(N3O2)2,-0.817079365
14439,CaH2CO4,-2.188409654
14440,C4SeO2,-0.212488151
14441,CS2(NCl)3,-0.265525208
14442,Na5Y(CO3)4,-2.317273629
14443,H11C10NO8,-0.743736444
14444,Y9C4I8O,-1.245708793
14445,H14C3NF5,-1.037508709
14446,Na(CO)3,-1.230451253
14447,SnH8(CO)4,-0.799522753
14448,KPuCO5,-2.680008144
14449,CuCClO,-0.884492248
14450,KLiCO3,-2.206506543
14451,K2Fe(CO)4,-0.892652897
14452,K2MoC2O9,-1.733847204
14453,K2WC2O9,-1.734482117
14454,MnH2(CO2)2,-1.459004928
14455,MnC5(O2F)2,-0.903723147
14456,K2MoH2(CO4)2,-1.874020077
14457,VH9C3O4,-0.853756397
14458,K3VCO8,-1.984322886
14459,FeH4C3O5,-1.212824644
14460,NaW6CCl18,-1.291972203
14461,H10C3IN,-0.344158155
14462,KC2IN2,-0.041852344
14463,LaCN2Cl,-1.518100203
14464,H8PtCN8,-0.1967444
14465,Cs2Na(C2N3)3,-0.273629949
14466,Mn2Fe(CN)6,0.013498129
14467,Sr2C(NCl)2,-1.861340954
14468,PC2N3Cl4,-0.517660976
14469,La2CN3Cl,-1.638969217
14470,RbPr6(CI6)2,-1.306338908
14471,RbZr6CCl15,-2.192070603
14472,Cs4Sc6CCl13,-2.188699828
14473,Si2H15C5N,-0.395888584
14474,Cd2Ru(CN)6,0.052231492
14475,Hg2C(NCl)2,-0.270198594
14476,P4C2Se3N2,0.13817876
14477,SbCNCl5,-0.733469691
14478,DyFe2SiC,-0.528221326
14479,H8C2I3N,-0.349472513
14480,K3Cr(CN)6,-0.272368056
14481,H9C4Se2N,-0.121175271
14482,Cd2Os(CN)6,0.027898412
14483,KCSeN,-0.418118353
14484,Si2H18C7N2,-0.344352069
14485,Mn2Ru(CN)6,0.013103052
14486,Cs2Lu7CCl18,-2.483130081
14487,TbRe2SiC,-0.466897897
14488,Hg3C2(N2Cl)2,-0.067573258
14489,Sr6FeC2N7,-0.852959544
14490,Tl2Ni(CN)4,0.106490333
14491,K5Nb(CN)8,-0.366878398
14492,ThFe2SiC,-0.502153594
14493,CsC3(SeN)3,0.041155031
14494,KZr6CCl15,-2.186516384
14495,HoSiRu2C,-0.616325266
14496,Zn3Fe2(CN)12,0.073350518
14497,HgC2(SeN)2,0.280453558
14498,NaC2N3,-0.348026828
14499,H8C2NCl,-0.541773612
14500,Cd2Fe(CN)6,0.056602952
14501,NiH20(C4N5)2,-0.31926436
14502,GaH13(C2N)2,-0.258659146
14503,DySiRu2C,-0.619285519
14504,SbCNCl6,-0.781470985
14505,Mn2Os(CN)6,-0.011625189
14506,CoH3(CN)6,0.13471372
14507,Fe11Mo6C5,0.006838554
14508,SiH17C11N,-0.246378719
14509,Cs2Zr7CI18,-1.072698852
14510,KLa5(CCl5)2,-2.318409704
14511,Tb10Cs3C4Cl21,-2.265373386
14512,LiW6CCl18,-1.27643325
14513,Ga2RhC4Cl7O4,-1.23345883
14514,ReC2(IO)2,-0.710635608
14515,Cs4UC3O11,-2.476701399
14516,NaC4N3,-0.005014613
14517,Na3MoH6(CO2)6,-1.511486778
14518,La2Si4CN6,-0.565000874
14519,RbC2I3N2,-0.07627407
14520,La21Fe8Sb7C12,-0.527461555
14521,CsZr6CI14,-1.039397648
14522,SbH6C2I,-0.222429837
14523,Eu2C(NCl)2,-1.78275156
14524,H9C2(NO)3,-0.523678066
14525,CuH6(CO2)4,-1.186231064
14526,H4Pb(CO3)2,-1.481917416
14527,CuH12(C2N5)2,-0.079502673
14528,InH6(CO3)3,-1.529834643
14529,MnH12(C2N5)2,-0.080233778
14530,H2Os3(CO)10,-0.904747188
14531,H8C3SeN2,-0.262408067
14532,H8C3SN2,-0.338560055
14533,FeHC2O3,-1.217318252
14534,CoHCO3,-1.192994829
14535,H6C2NO,-0.390107805
14536,H5C2NO4,-1.169387278
14537,SrH6(CO3)2,-1.182337139
14538,CuH2(CO2)2,-0.997909595
14539,MoH2(CO2)2,-1.146330364
14540,KCSN,-0.652357025
14541,VH4(CO3)2,-1.525094272
14542,H14C4NF3,-0.751518821
14543,Cu4H3C2N5,-0.064953716
14544,K2FeCu(CN)6,-0.087490825
14545,Na2Mg(CO3)2,-2.270982694
14546,LaCr2Si2C,-0.424280573
14547,H13(C5N)2,-0.159904183
14548,Si2H25C10N,-0.317936967
14549,K2Hg(CN)4,-0.101466674
14550,RbU2H5C4O15,-2.153020107
14551,CdPd(CN)6,0.311741596
14552,La21Fe8Sn7C12,-0.452283137
14553,NaNpCO5,-2.634041331
14554,CsC2I3N2,-0.080969641
14555,OsC3IO3,-0.895367577
14556,Os3C9S2O9,-1.007387828
14557,Na2Cu(CO3)2,-1.834581749
14558,NaCo(CO)4,-0.973371258
14559,HgC2(SN)2,0.016171433
14560,CsCSN,-0.725142146
14561,Re2Pt(CO)12,-0.989100796
14562,Os2Pt(CO)10,-0.942620046
14563,PdC2ClO2,-0.769316196
14564,OsC3I2O3,-0.846755329
14565,C2SN2,0.341192546
14566,ReC5IO5,-0.988550338
14567,FeC3SeO3,-0.555394686
14568,Co2C5SO5,-0.795317678
14569,MnC4NO5,-0.706406931
14570,Fe(CO)5,-0.735770365
14571,PtC2(ClO)2,-0.995054223
14572,ErCo(CN)6,-0.250984559
14573,K4UC3O11,-2.48276218
14574,Rb2Hg(CN)4,-0.099138121
14575,Y7C2I12N,-1.346957016
14576,SnC2(SN)2,-0.152061099
14577,K2Zn(CN)4,-0.263974748
14578,Tl2Pt(CN)4,0.035250149
14579,K3Co(CN)6,-0.300997636
14580,Os3C10SO10,-0.980738023
14581,Re2C3I4O3,-0.613535858
14582,Os3C12(IO6)2,-0.937240214
14583,ReC4IO4,-0.988031978
14584,P(CN)3,0.453883262
14585,Co6C13(SO6)2,-0.657514275
14586,Co3C10ClO9,-0.717936912
14587,MnC5ClO5,-0.865756935
14588,Fe6W6C,-0.048680501
14589,Ca2CO3F2,-3.25400377
14590,Fe4Te2(CO)11,-0.525512198
14591,CeCr2Si2C,-0.493269943
14592,Fe2C9O7F4,-0.848360878
14593,RuC3SeO3,-0.934279889
14594,Fe3C9Se2O9,-0.58248624
14595,RhC2IO2,-0.783688492
14596,Mn2C7S2O7,-0.732570507
14597,Sr2CuCO5,-2.401127035
14598,NaHCN2,-0.463454518
14599,Y2Si4CN6,-1.378423349
14600,FeC3SO3,-0.653964883
14601,K2Pt(CN)4,-0.329388909
14602,CSeN,0.448869191
14603,P3CN4Cl7,-0.811838513
14604,C4SO2,-0.371903349
14605,LaCO3F,-3.151542997
14606,C2SeN2,0.539878032
14607,FePbC5N6O,0.242961851
14608,Fe21(MoC3)2,0.028394991
14609,Fe21(WC3)2,0.02166794
14610,U6Fe16Si7C,-0.388926569
14611,FeCuC5N6O,0.333329585
14612,LaH3(CO2)3,-1.824678421
14613,CeH3(CO2)3,-1.767698725
14614,TbH3(CO2)3,-1.800906775
14615,TmH3(CO2)3,-1.791629722
14616,Fe2(CO)9,-0.69379837
14617,H6CN4O3,-0.108675746
14618,KH3C2O3,-1.277066327
14619,Mn2In(CO)9,-0.742074424
14620,KHCO2,-1.611284993
14621,H8C2IN,-0.392147219
14622,LiH2CO3,-1.298421828