id,Composition,FormationEnergy
11032,NaBeO3,-1.346287124
11033,Na3Be,0.505020936
11034,Np3Be,0.236228655
11035,Be3Tc,-0.279168676
11036,MnBe2Co,-0.243915749
11037,BaHo2PdO5,-3.08353695
11038,Ti3Be,0.000850641
11039,Th3Be,0.29336245
11040,Tm2BeOs,-0.149809496
11041,Ta2Be2O5,-1.993656667
11042,Be3Fe,-0.210532335
11043,Ba4Nd4Zn3PtO15,-2.821969858
11044,BeZnO3,-1.209082155
11045,CaBeO3,-2.250346095
11046,BeNi3,-0.147307588
11047,BeGaCo2,-0.280856879
11048,BeGaO3,-1.30410799
11049,BeIn3,0.42053332
11050,Ba4Er(RuO4)3,-2.544551323
11051,Ba3Si6(NO6)2,-3.086683197
11052,K4BeP2,-0.382449731
11053,RbBaSiHO4,-2.725444323
11054,KBaSiHO4,-2.74541678
11055,CsBaSiHO4,-2.697284453
11056,BaCaCuF7,-3.20647511
11057,Ba2Mg3Ti4Tl2O12,-2.634505726
11058,Ba2Tl2Zn3(CuO3)4,-1.393491292
11059,Ba2Mg3Tl2(CuO3)4,-1.764695855
11060,Ba2Ca3Ti4Tl2O12,-2.853517758
11061,Ba2Mg3Tl2(SnO3)4,-1.88158637
11062,Ba2Ti4Tl2Zn3O12,-2.277025354
11063,Ba2Tl2Zn3(SnO3)4,-1.584024786
11064,Ba2Ca3Tl2(SnO3)4,-2.140046995
11065,Ba2CaTl2(CuO3)4,-1.42141417
11066,Ba4CaTl4(Cu3O10)2,-1.453433193
11067,Ba2Ca3Tl2(CoO3)4,-1.971997255
11068,Ba2CaV2(P2O9)2,-2.916999786
11069,Ba2Ca3Tl2(NiO3)4,-1.78707648
11070,Ba2Tl2Zn3(CoO3)4,-1.417972324
11071,Ba2Mg3Tl2(WO3)4,-1.599398458
11072,Ba6YTl3(Cu2O7)3,-1.755855873
11073,Ba4CaFe4Cu2F28,-3.10300123
11074,Ba4CaV4Cu2F28,-3.366246451
11075,Ba2Mg3Tl2(NiO3)4,-1.58712757
11076,Ba2YMn2TlO7,-2.519129443
11077,Ba2Ca3Mn4Tl2O12,-2.270238295
11078,Ba2Tl2Zn3(FeO3)4,-1.603197683
11079,Ba2Tl2Zn3Cr4O12,-1.765333964
11080,Ba2Tl2Zn3(WO3)4,-1.334181686
11081,Ba2Ca3Tl2(FeO3)4,-2.107835365
11082,Ba2Mn4Tl2Zn3O12,-1.721904528
11083,Ba2Tl2Zn3(NiO3)4,-1.215034814
11084,BaCa3(CuN2)2,-0.450338314
11085,Ba2Ca3Tl2Cr4O12,-2.324043377
11086,Ba2Ca3Tl2V4O12,-2.369628283
11087,Ba4CaCr4Cu2F28,-3.241142539
11088,Ba2ZnFe2F14,-2.942038413
11089,Ba4CaCu6(HgO8)2,-1.469914122
11090,Ba2CaCuSb2F14,-3.234532192
11091,Ba2MgCuBi2F14,-3.198998308
11092,Ba2ZnCuBi2F14,-3.026016763
11093,Ba2MgCuSb2F14,-3.162913864
11094,Ba2CaCuBi2F14,-3.269631287
11095,Ba2ZnCuSb2F14,-2.988472209
11096,Ba2CaCuSn2F14,-3.239567086
11097,Ba2ZnCuSn2F14,-2.987216786
11098,Ba2MgTi2CuF14,-3.603922236
11099,Ba2MgCuSn2F14,-3.146502751
11100,Ba2ZnFe2CuF14,-3.038741605
11101,Ba2MgFe2CuF14,-3.21999963
11102,Ba2CaCo2CuF14,-3.109559253
11103,Ba2CaMn2CuF14,-3.318709713
11104,Ba2ZnCr2CuF14,-3.151117133
11105,Ba2MgCr2CuF14,-3.330860902
11106,Ba2Mn2ZnCuF14,-3.035695051
11107,Ba2MgMn2CuF14,-3.219492534
11108,Ba2CaCuMo2F14,-3.325070289
11109,Ba2MgCo2CuF14,-3.014147826
11110,Ba2MgCuMo2F14,-3.236976204
11111,Ba2MgCuNi2F14,-2.823319596
11112,Ba2CaCuNi2F14,-2.922064022
11113,Ba2V2ZnCuF14,-3.214268589
11114,Ba2ZnCuNi2F14,-2.649189698
11115,Ba2Ca3Tl2(WO3)4,-1.94824534
11116,Ba2YTi2TlO7,-3.023500572
11117,Ba2YTlSn2O7,-2.3471205
11118,Ba2Tl2Zn2Cu3O10,-1.502830046
11119,Ba2Mg2Tl2Cu3O10,-1.787022749
11120,Ba2Ca2Ti3Tl2O10,-2.802630711
11121,Ba2Mg2Ti3Tl2O10,-2.642215067
11122,Ba2Tl2Zn2Sn3O10,-1.71998394
11123,Ba2Ca2Tl2Sn3O10,-2.171990001
11124,Ba2Mg2Tl2Sn3O10,-2.049897703
11125,Ba2Mg3Tl2(FeO3)4,-1.962330146
11126,Ba2Ti3Tl2Zn2O10,-2.370376631
11127,Ba2Mg3Tl2(CoO3)4,-1.788354589
11128,Ba2MgV2CuF14,-3.392317417
11129,Ba2YTlCr2O7,-2.584525409
11130,Ba2YTlCo2O7,-2.26092692
11131,Ba2YTlFe2O7,-2.385324114
11132,Ba2YTlNi2O7,-2.07341708
11133,Ba2YTlW2O7,-2.188184824
11134,Ba2YTlV2O7,-2.659192141
11135,Ba2Ca2Tl2Co3O10,-2.015062091
11136,Ba2Ca2Tl2Cr3O10,-2.27545048
11137,Ba2Ca2Tl2Fe3O10,-2.149649719
11138,Ba2Mg2Tl2Co3O10,-1.857144349
11139,Ba2Mg2Tl2Cr3O10,-2.127844668
11140,Ba2Tl2Zn2Co3O10,-1.574916906
11141,Ba2Ca2Mn3Tl2O10,-2.242381934
11142,Ba2Mg2Tl2Ni3O10,-1.653069543
11143,Ba2Mg2Mn3Tl2O10,-2.116728303
11144,Ba2Mn3Tl2Zn2O10,-1.858827203
11145,Ba2Tl2Zn2Fe3O10,-1.719063695
11146,Ba2Mg2Tl2W3O10,-1.834208283
11147,Ba2Ca2Tl2Ni3O10,-1.787599101
11148,Ba2Tl2Zn2Ni3O10,-1.384067857
11149,Ba2Mg2Tl2Fe3O10,-1.98460545
11150,Ba2Ca2Tl2W3O10,-1.996216685
11151,Ba2Tl2Zn2Cr3O10,-1.893016013
11152,Ba2CaTi2CuF14,-3.701793322
11153,BaMg(SnO2)4,-2.086499559
11154,BaZn(SnO2)4,-1.883161186
11155,Ba2Mg3Mn4Tl2O12,-2.082321648
11156,Ba2YSb3O8,-2.352217828
11157,BaYCuSnO5,-2.49696456
11158,BaYCuSbO5,-2.378629425
11159,BaYTiCuO5,-2.996938029
11160,BaYCuBiO5,-2.388342782
11161,BaYCoCuO5,-2.370263153
11162,BaYCrCuO5,-2.614190221
11163,BaYVCuO5,-2.687620512
11164,BaYMnCuO5,-2.548899379
11165,BaYCuWO5,-2.313340085
11166,BaYCuNiO5,-2.209772935
11167,BaYCuMoO5,-2.454978883
11168,PrBi,-0.786038055
11169,InBi,0.005777635
11170,HoBi,-0.57406102
11171,PuBi,-0.286163233
11172,Tl3Bi,-0.026689344
11173,Eu(MgBi)2,-0.552718117
11174,ZnBi,0.105542366
11175,BiPd,-0.32683106
11176,BiI3,0.11684403
11177,YBiPd,-0.948962333
11178,NdBiPd,-0.951087372
11179,HoBiPd,-0.937501587
11180,DyBiPd,-0.947083873
11181,Sr3BiN,0.619235452
11182,Ca3BiN,0.657102226
11183,Ca3BiP,-0.972988872
11184,Sr3BiSb,-0.635537506
11185,Sr3Bi2,-0.509862684
11186,Ca3BiSb,-0.455436194
11187,Ca3Bi2,-0.472897072
11188,Ca(BeP)2,-0.737587293
11189,Bi2O3,-1.492310085
11190,UBi,0.120605072
11191,GaBi,0.016183612
11192,Be(PN2)2,-0.9121283
11193,BeGeN2,-0.816491356
11194,SrBe2(PO4)2,-3.156078029
11195,Bi3O2,-0.985070746
11196,YbBi2,-0.54536561
11197,Na2LiBe2F7,-3.353618674
11198,K2SrBe2F8,-3.619107692
11199,K2Mg2Be3F12,-3.600483791
11200,Rb2Be3Cd2F12,-3.164135519
11201,Rb3NaBe2F8,-3.323800722
11202,K2Na4Be2O5,-2.035784542
11203,Pr2Be2GeO7,-3.242700491
11204,Sm2Be2GeO7,-3.277001093
11205,Er2Be2GeO7,-3.308945161
11206,CsBePO4,-2.893837705
11207,Be3Cd4Si3SeO12,-2.581563248
11208,Be3Cd4Si3TeO12,-2.563705719
11209,Na2BeSiO4,-2.82888761
11210,RbBe3ZnF9,-3.334189495
11211,Be3Cd4Si3SO12,-2.612659454
11212,K3BeF5,-3.258290474
11213,Na2BeGeO4,-2.394811599
11214,KBe3ZnF9,-3.334683033
11215,CsLiBeF4,-3.379261539
11216,Y2Be2Fe(SiO5)2,-3.342268955
11217,Be3Fe4Si3SO12,-2.490316575
11218,Mn4Be3Si3SO12,-2.785794916
11219,CaMn2Be3(SiO4)3,-3.061701571
11220,Yb2Be2Si2NiO10,-2.9390881
11221,La2Be2GeO7,-3.292131807
11222,Dy2Be2GeO7,-3.307985883
11223,Bi2S3,-0.747423949
11224,NiBi,0.275539862
11225,Bi2Pt,-0.243745308
11226,BiRh,0.129848962
11227,SmBi,-0.92514035
11228,MnBi,0.450549374
11229,LiBi,-0.37604437
11230,DyBi,-0.859559475
11231,BiCl3,-1.377781813
11232,NpBi,0.127459063
11233,TbBi,-0.880601988
11234,BiPt,-0.038501875
11235,NaBi,-0.308320883
11236,LaBi,-1.056460799
11237,BiTeI,-0.374831263
11238,Tb6FeBi2,-0.418381334
11239,NaMnBi,0.016289611
11240,Bi4Te7Pb,-0.266251049
11241,Bi2Pd3S2,-0.55951145
11242,BiSbO4,-1.860083021
11243,BiSeI,-0.421686672
11244,Er6MnBi2,-0.405342931
11245,Ho6MnBi2,-0.408768733
11246,BiOF,-2.220781421
11247,Bi,0
11248,SrBi3,-0.449929973
11249,CsBi2,-0.295605225
11250,Bi2Se3,-0.364654861
11251,Nd4Bi3,-0.833176664
11252,NiBi3,-0.025119061
11253,In5Bi3,0.029817848
11254,La4Bi3,-0.923555083
11255,In2Bi,-0.000616943
11256,U3Bi4,0.089678271
11257,Bi2Rh,-0.201868971
11258,Li3Bi,-0.531615185
11259,BiTe,-0.198824222
11260,TmBi,-0.776965582
11261,BiF3,-2.80168351
11262,YBi,-0.89435
11263,ErBi,-0.808314605
11264,Ce4Bi3,-0.678664708
11265,RbBi2,-0.296186368
11266,Th3Bi4,-0.629466444
11267,KBi2,-0.301707875
11268,Sm4Bi3,-0.805077718
11269,CeBi,-0.788572865
11270,NdBi,-0.948933233
11271,Rb3Bi,-0.30746058
11272,Yb4Bi3,-0.830787474
11273,Pr4Bi3,-0.844726634
11274,BiSCl,-1.06437162
11275,BiSBr,-0.769072805
11276,Bi2TeO5,-1.661596752
11277,Bi2Pt2O7,-1.347461489
11278,Sn2Bi2O7,-1.943503585
11279,Tl4Bi2S5,-0.701535055
11280,Bi2TeI,-0.258112345
11281,BiSI,-0.628814178
11282,BeH8(ClO2)2,-1.552286186
11283,BeH8SO8,-1.754736328
11284,KBe(H2N)3,-0.691412215
11285,BePH4NO4,-1.921215082
11286,BeH8(NF2)2,-1.65926584
11287,Be3P2(H2O5)2,-2.470724101
11288,Mn4Be3Si3TeO12,-2.716909741
11289,Mn4Be3Si3SeO12,-2.746608051
11290,Bi2WO6,-1.966623564
11291,BiO2,-1.057242497
11292,Be2CoH20N2(O3F4)2,-1.747509923
11293,Mn4Be3Ge3SeO12,-2.293241316
11294,Mn4Be3Ge3SO12,-2.332169766
11295,BiPS4,-0.739098394
11296,Ca5Bi3,-0.848538935
11297,Rb3BiBr6,-1.414681413
11298,CsBe2F5,-3.499977584
11299,Bi2TeO6,-1.635313506
11300,Ca9Zn4Bi9,-0.660649603
11301,Ca11Bi10,-0.810313435
11302,ReBiO4,-1.937527535
11303,Ca12Be17O29,-3.198591421
11304,LiBiF6,-2.507214957
11305,NaBiF6,-2.504788377
11306,RbBiF6,-2.553854568
11307,CsBiF6,-2.573215492
11308,TlBiTe2,-0.312720602
11309,U2BiN2,-1.266362489
11310,Th2BiN2,-1.666329401
11311,Cs3Bi2Br9,-1.277520368
11312,Be(PO3)2,-2.799413711
11313,Bi4Se3,-0.272658994
11314,Be4TeO7,-2.590600889
11315,BiI,-0.302731678
11316,Bi6Br7,-0.50160221
11317,BiF5,-2.149722327
11318,U(BiO3)2,-2.570779175
11319,SrBe3O4,-3.130990086
11320,Na3Bi,-0.381805311
11321,Bi2SO2,-1.385985418
11322,BiSe,-0.320042828
11323,Bi2Te2S,-0.422062503
11324,K2BeO2,-2.125852685
11325,BiO,-0.900039001
11326,Ge(BiTe2)2,-0.191804465
11327,Be(H2N)2,-0.767945975
11328,La2Be2O5,-3.512197712
11329,Bi9I2,-0.091778865
11330,BiClF8,-1.764384803
11331,Bi4Te3,-0.172564357
11332,ReBi3O8,-1.920103719
11333,Sr4Bi6Se13,-0.968871589
11334,SrBiSe3,-1.017213967
11335,LiBiF4,-2.951543517
11336,Na2BeO2,-2.196296205
11337,BiS,-0.403441477
11338,La4Bi2S9,-1.97146654
11339,K2Bi8Se13,-0.536969534
11340,Nb3(BiS3)2,-1.259563294
11341,BiTeCl,-0.797341106
11342,Bi3NF6,-2.21173095
11343,Bi2(PSe3)3,-0.189293096
11344,K3BiSe3,-0.962143058
11345,Bi2Te4O11,-1.592354765
11346,BiTePd,-0.346960566
11347,Ga3Bi5Cl12,-1.216239059
11348,Bi(TeBr2)2,-0.489674151
11349,Rb3BiSe3,-0.950109988
11350,Ca(MgBi)2,-0.53879547
11351,Bi2PdO4,-1.424835916
11352,K3BiTe3,-0.799260782
11353,K5SnBi3,-0.362367151
11354,Cs3BiO3,-1.643078192
11355,CsBiO2,-1.701383637
11356,Bi7RhBr8,-0.528330351
11357,RbBiO2,-1.711353243
11358,Rb3BiO3,-1.639457046
11359,CsBi3S5,-0.942999266
11360,Ca(MnBi)2,0.038574047
11361,Sr2Bi,-0.757909907
11362,Sr5Bi3,-0.879923909
11363,SrZnBi2,-0.430302114
11364,BiTePt,-0.344547343
11365,ZrBi2,-0.287022198
11366,GeBi4Te7,-0.210071078
11367,TlBiSe2,-0.452285437
11368,Bi2Te2Se,-0.305064008
11369,MgNiBi,-0.204071632
11370,Bi2Se2Cl7,-1.103123486
11371,Bi3Se4Br,-0.43098322
11372,Rb3Bi2I9,-0.940973982
11373,Bi2Te4Cl7,-0.954978214
11374,TlBi,0.103306565
11375,Rb2BeF4,-3.332401514
11376,Bi2Te7Cl8,-0.81572264
11377,Be(N3O7)2,-0.981880885
11378,Be4N6O19,-1.465264166
11379,Rb2Bi8Se13,-0.531347971
11380,La5Bi3Br,-1.092535105
11381,Bi4O7,-1.588305426
11382,Bi3SbO7,-1.798424517
11383,Sr11Bi10,-0.862330272
11384,DyBiRh,-0.753918767
11385,Ho6FeBi2,-0.418871606
11386,Sr9Cd4Bi9,-0.725218518
11387,MgCuBi,-0.116173398
11388,Mn3(CuBi)4,0.166089931
11389,DyNiBi,-0.679032167
11390,DyBiPt,-1.04410986
11391,HoBiPt,-1.038147987
11392,LuNiBi,-0.639600357
11393,ScNiBi,-0.63095384
11394,YNiBi,-0.67626715
11395,BiPd2Pb,-0.297936318
11396,BiPd3,-0.268522052
11397,Bi2Pd5,-0.281424411
11398,YBiPd2,-0.748345205
11399,Bi4Rh,-0.144914383
11400,ThBi,-0.536776825
11401,TlBi2,-0.008670213
11402,Sr4Bi3,-0.88427988
11403,Y6CoBi2,-0.478911433
11404,Ho6CoBi2,-0.457696326
11405,ZrBi,-0.38029531
11406,Ni3(BiSe)2,-0.231475843
11407,Ca9Mn4Bi9,-0.523755499
11408,KBi,-0.359875973
11409,RbBi,-0.354159852
11410,Sr2Bi3,-0.700317004
11411,Ca(BeGe)2,-0.26425184
11412,Ca3(Bi2Pd)4,-0.534058261
11413,K3Bi,-0.380306812
11414,Bi5NO10,-1.538855885
11415,Hf6CoBi2,-0.257231775
11416,Bi2TeSe2,-0.310734833
11417,ZrCoBi,-0.424373195
11418,ZrNiBi,-0.30872318
11419,Tb5Bi3,-0.70622553
11420,Dy5Bi3,-0.68948198
11421,Ho5Bi3,-0.667612875
11422,Er5Bi3,-0.64513657
11423,K2SnBi,-0.355581182
11424,Bi13O20,-1.614898739
11425,Be2SiO4,-3.194747265
11426,LiBiS2,-1.057657043
11427,BiTeBr,-0.50921395
11428,Bi2Te3,-0.237341834
11429,Tl9BiTe6,-0.307259371
11430,CdBi3O7,-1.261095404
11431,NaBiSe2,-0.705979346
11432,BiTe3,0.050395397
11433,Bi2WO8,-1.434445935
11434,Be(CN)2,-0.23642373
11435,BiPbF5,-2.706409944
11436,Hf2Bi2O7,-2.961961282
11437,KBiSe2,-0.688166339
11438,TlBiS2,-0.626527805
11439,Sm(BiTe2)2,-0.499006044
11440,Sn(BiTe2)2,-0.25329023
11441,Na8Be3Si9(ClO12)2,-2.928701356
11442,BeSO4,-2.432711152
11443,KBiF6,-2.550440918
11444,Bi2Se4Cl7,-0.949041186
11445,Mn5(NiBi2)2,0.147787747
11446,K2BeH4(SO5)2,-2.113155571
11447,K2BeF4,-3.346487199
11448,Hf3(Bi5Cl9)2,-1.422143334
11449,TlBi25O39,-1.614433985
11450,Zr3(Bi5Br9)2,-0.800150084
11451,Zr3BiF15,-3.773999572
11452,Ge3(BiTe3)2,-0.136454798
11453,Y2Be2GeO7,-3.290058524
11454,Cd(BiO2)2,-1.574624467
11455,Ni4(Bi4I)3,-0.130027886
11456,Bi4RuI2,-0.218912933
11457,Bi4RuBr2,-0.322890504
11458,Bi9Rh2I3,-0.234618712
11459,Bi14PdBr16,-0.533489309
11460,Bi3Se4,-0.323786169
11461,K2BeH4(SeO5)2,-1.707306846
11462,Rb2BeH4(SO5)2,-2.106292671
11463,InBiO3,-1.347467339
11464,ScBiO3,-2.466079707
11465,BeZnO2,-2.410863502
11466,Ni3(BiS)2,-0.486965477
11467,Li2BeSiO4,-2.979101293
11468,Ta3(BiS3)2,-1.259335721
11469,TcBi3O8,-1.826680063
11470,Bi2Os2O7,-1.505053106
11471,Li4Be3P3BrO12,-2.838905817
11472,Na2Be(GeO3)2,-2.349682107
11473,Hg(BiS2)2,-0.681790871
11474,Cs2Bi4O7,-1.70112171
11475,BiXeF9,-1.570422873
11476,Na2Be2(SiO3)3,-3.05882724
11477,Bi2Rh2O7,-1.47864498
11478,Na10Be4Si4O17,-2.734283483
11479,K6Be4C6O19,-2.342654339
11480,NaBeSi3HO8,-2.955519339
11481,Na2Be(SiO3)2,-2.981971832
11482,Ga2BiS4,-0.975297921
11483,Rb2Bi4O7,-1.710634548
11484,Na3LiBe2F8,-3.306492077
11485,Rb2Be2Si2O7,-2.992494932
11486,K2Be(CO2)4,-1.983461496
11487,K2Be2(SiO3)3,-3.089037676
11488,K2Be2Zn2Si3O11,-2.827342227
11489,K2Mn2Be3F12,-3.319706711
11490,Bi14Te13S8,-0.431831363
11491,RbBe2P3O10,-2.885604538
11492,K2Be(Si2O5)2,-3.118535687
11493,Bi2Ir2O7,-1.477569367
11494,KHoBeF6,-3.922912937
11495,Bi6Rh12O29,-1.329537165
11496,Li6ZrBeF12,-3.474218697
11497,Li2Ca3Be3Si3(O6F)2,-3.362285454
11498,RbNa5Be8O11,-2.565730158
11499,Bi3Pt3O11,-1.339345145
11500,KBe(PO3)3,-2.774992023
11501,EuSm2BeO5,-3.540681561
11502,RbLi2Be2F7,-3.41386042
11503,LiBeH8CNOF4,-1.691049378
11504,NaCaBeSi2O6F,-3.303236882
11505,Li4Be3P3ClO12,-2.885363358
11506,K2BiF5,-2.961936376
11507,K2Be2(Si2O5)3,-3.165076701
11508,Cs2Ca2Be3F12,-3.733040349
11509,Sr(BiPd)2,-0.604794254
11510,Yb5Bi3,-0.815188961
11511,GdNiBi,-0.667823008
11512,Ti4CoBi2,-0.31360307
11513,La3MnBi5,-0.639935479
11514,CsBi3Se5,-0.595545853
11515,Nb3Bi,0.041658489
11516,LuBi,-0.725388105
11517,Ti2Bi,-0.130190203
11518,TmNiBi,-0.656089945
11519,BiBr3,-0.776864336
11520,SrCdBi2,-0.474693669
11521,Bi2Pd,-0.246740592
11522,BiBr,-0.487734132
11523,Bi20(PtBr12)3,-0.659658479
11524,La3MgBi5,-0.735591847
11525,Mg3Bi2,-0.207401211
11526,Bi2Te5Pb2,-0.257856333
11527,Tl3Bi2I9,-0.561579935
11528,Ga(BiCl)4,-0.914887385
11529,La3ScBi5,-0.893631868
11530,Sm2(MnBi2)3,-0.197664699
11531,LiCaBi,-0.805831356
11532,Ca2Bi,-0.762913173
11533,Nd3MnBi5,-0.534878475
11534,BiSeBr,-0.55454403
11535,Ti4MnBi2,-0.27327474
11536,Pr3MnBi5,-0.546023646
11537,CuBi,0.105364597
11538,UBi2,0.048867032
11539,Tm6CoBi2,-0.451482122
11540,Ho5Co2Bi,-0.355706397
11541,Cs3BiCl6,-2.015913256
11542,Ca14MnBi11,-0.812267676
11543,LiMgBi,-0.411584342
11544,Ti4FeBi2,-0.28954525
11545,Bi6PtCl10,-1.147811465
11546,ScBi,-0.664299165
11547,SnBi,0.05593986
11548,Tb4Bi3,-0.751890536
11549,SmBiRh,-0.731108279
11550,Bi2Pb2Se5,-0.463546649
11551,Ga2BiSe4,-0.544131648
11552,Tl3BiI6,-0.594575059
11553,ThBi2,-0.53146047
11554,Ti4NiBi2,-0.283559054
11555,Ga(BiBr)4,-0.489076536
11556,BiRhO3,-1.365149638
11557,Cs3Bi2,-0.352842822
11558,Eu3BeO5,-3.220900015
11559,Bi8Te9,-0.211816341
11560,Na3InBi2,-0.292636505
11561,Bi14Rh3,-0.110715974
11562,Cs3BiSe3,-0.972287865
11563,Ca21(Mn2Bi9)2,-0.707703584
11564,Gd5CuBi3,-0.670207749
11565,KBiF4,-2.876592552
11566,Bi3Rh,-0.150346144
11567,Sr21(Cd2Bi9)2,-0.841363491
11568,Bi6Cl7,-0.989335772
11569,Bi12PtCl12,-0.915251236
11570,Bi4I,-0.096295171
11571,Bi6PtBr10,-0.637238965
11572,Y2BeO4,-3.709940193
11573,Sc5Bi3,-0.593156347
11574,BiSeCl,-0.846844237
11575,CaMnBi2,-0.229600909
11576,GdBi,-0.896035143
11577,RbBiF4,-2.838508252
11578,GdBiPt,-1.017840515
11579,Ca2BeSi2O7,-3.407803079
11580,Bi3(TeCl5)2,-1.186780229
11581,Mn3Bi,0.471359762
11582,Y5Bi3,-0.719300755
11583,Cs3Bi2I9,-0.982147666
11584,YbBeF4,-3.819636477
11585,KLiBeF4,-3.37687319
11586,Be(HO)2,-1.973454124
11587,BiTeIr,0.939386677
11588,NbBi2Mo,0.693359918
11589,Ta2CdBi,0.771137635
11590,CaReBi,0.746289502
11591,CuTcBi,0.678725335
11592,KTi2Bi,0.729833222
11593,BiSb2Os,0.779391739
11594,BiMoRh,0.53878799
11595,ZrBeCd,0.776905977
11596,TlCoBi,0.936752365
11597,Cs6Bi4O9,-1.666865364
11598,Cs3Bi,-0.3152037
11599,EuCuBi,-0.501595373
11600,K2Be3Zn2F12,-3.194589165
11601,NaBePO4,-2.883251476
11602,Ce3MnBi5,-0.386525788
11603,Ti8Bi9,-0.175961727
11604,Sr5(InBi3)2,-0.674214652
11605,Bi12Rh3Br2,-0.262996447
11606,NiBiO3,-1.220721202
11607,Cs3Bi7Se12,-0.630218727
11608,Gd2Be2GeO7,-3.265020732
11609,Y2Be2SiO7,-3.585874149
11610,Bi12PbO20,-1.612742752
11611,Bi2Te2O7,-1.633628395
11612,BePbF4,-3.096073948
11613,Cs(Bi2Te3)2,-0.371899269
11614,TlBiF4,-2.241895604
11615,Bi14SO24,-1.616948815
11616,Rb2Bi3F11,-2.784661999
11617,KBi2F7,-2.774179701
11618,Bi5(S2Cl)3,-0.887777496
11619,Sm3(Bi7Te12)2,-0.327069788
11620,Sn4Bi2Se7,-0.383711678
11621,NaBiS2,-1.058025156
11622,Bi2PbSe4,-0.440844689
11623,Cd2Bi6O11,-1.495507564
11624,BiTeO4,-1.352643693
11625,Cu3(BiI4)4,-0.347271257
11626,Bi2Pb3F12,-2.702159098
11627,K2Bi3F11,-2.788770033
11628,Tl9BiSe6,-0.377195648
11629,Cd3(BiO2)10,-1.439620651
11630,U2Bi2O7,-2.765225307
11631,Bi2Te4Pb,-0.286365347
11632,U(BiO2)4,-2.043384913
11633,Cd(Bi9O14)2,-1.39787723
11634,Bi7(S3Cl)3,-0.726965724
11635,RbBiF3,-2.554506777
11636,CaBe2(PO4)2,-3.138585098
11637,U8Bi2O19,-3.368762186
11638,Bi(Mo2Cl5)3,-1.335936218
11639,Bi34Ir3Br37,-0.461948012
11640,Bi8Se7,-0.295055993
11641,Cs2Bi8Se13,-0.539888145
11642,InBi37Br48,-0.533386424
11643,BiPtPb3,-0.143978487
11644,K11(In2Bi3)3,-0.346600393
11645,Tl7Bi3I16,-0.582091795
11646,Bi4O5,-1.37834884
11647,KNaZr2Be(PO4)4,-2.528323644
11648,Bi12Ir12O41,-1.448475917
11649,Tc6BiO18,-1.782830222
11650,Be3Zn4Si3SO12,-2.709288943
11651,Cd4Bi2O7,-1.349982576
11652,Bi12Rh12O41,-1.457764376
11653,CeBeSiHO5,-2.746334996
11654,CaBePO4F,-3.339820652
11655,Ni4(BiO2)9,-1.281207625
11656,Bi6W4O21,-1.854752593
11657,BeP2(HO)4,-1.663390331
11658,RbBe2F5,-3.491724568
11659,BeH4NF3,-1.956078258
11660,BePH3O5,-2.189506529
11661,Ni3(BiO2)10,-1.315778667
11662,Ca3Be2Si3(HO6)2,-3.121195079
11663,Ho2Be2SiO7,-3.60713164
11664,Be3Fe4Si3SeO12,-2.616143638
11665,Be3Fe4Si3TeO12,-2.58769143
11666,Bi14WO24,-1.722225821
11667,Be2PH5O7,-2.06710244
11668,Na4Be2Si6Sn(HO5)4,-2.707597699
11669,LiBeH4NF4,-2.183336935
11670,BeH8(NO5)2,-1.401460211
11671,BeH6(NF2)2,-1.670107883
11672,Be4Si2H2O9,-2.880911705
11673,Ca3Be2P4(HO2)10,-2.481791894
11674,BeH8SeO8,-1.545076613
11675,LiBeH5(NF2)2,-1.843261928
11676,BeH14(I2O9)2,-1.258085635
11677,KBePO4,-2.911099951
11678,BeH8(IO5)2,-1.363240863
11679,K2Be2PbF8,-3.261531248
11680,Be2P2O7,-2.780099118
11681,LiBiF5,-2.633171566
11682,ZrBiO4,-2.628718829
11683,Bi2OF4,-2.557934319
11684,Li4Bi2S7,-1.01921447
11685,Li3BiS3,-1.215195923
11686,BiOF3,-2.272334145
11687,Bi3O4F,-1.80575686
11688,Bi4O5F2,-1.891493259
11689,Bi3O5,-1.551233969
11690,Bi4O3F7,-2.324343984
11691,U4BiO10,-3.415799891
11692,Dy2(BiO2)7,-2.087996162
11693,Li2BiS2,-1.094135858
11694,BeClO,-1.979644022
11695,TmBiO3,-2.853640947
11696,SnBiO4,-1.713741474
11697,Li5BiS4,-1.321064242
11698,BiSbO3,-1.636174718
11699,Bi2TeO2,-1.197903786
11700,CdBiO3,-1.461667346
11701,Hg(BiO3)2,-1.117552994
11702,Zr2Bi2O7,-2.788114529
11703,Li8BiS6,-1.317151082
11704,HfBiO4,-2.739029976
11705,Gd(BiO2)4,-2.002864407
11706,Li3BePCO7,-2.514831876
11707,Dy5Bi11O24,-2.363724341
11708,Bi12PbO19,-1.619799811
11709,BeH2SeO4,-1.772628204
11710,Bi16O25,-1.587902095
11711,Bi10(Pb2O7)3,-1.58520029
11712,Bi19(O9F)3,-1.726025273
11713,Bi3O2F5,-2.470742799
11714,Bi7(O2F3)3,-2.329752065
11715,Bi5O7F,-1.71984159
11716,Bi2(SO4)3,-1.999902257
11717,Bi5O4F7,-2.363946413
11718,Bi6O5F8,-2.34523411
11719,BePO4,-2.552652189
11720,Li2BiF5,-2.945420831
11721,Bi17W3O34,-1.764899422
11722,Be(CoO2)2,-1.749371527
11723,Bi12O16F5,-1.859037441
11724,Bi8Rh8O27,-1.453371835
11725,Bi25O38,-1.611426864
11726,Li3BiS4,-1.102780824
11727,Li2BiS3,-1.065131015
11728,Be2GeO4,-2.713199348
11729,In2Bi2O7,-1.646787054
11730,Sc3Bi3O11,-2.451474519
11731,Dy2Bi2O7,-2.559452098
11732,Dy(BiO2)3,-2.208280286
11733,Be(FeO2)2,-2.209255629
11734,BeCrO4,-2.083898915