id,Composition,FormationEnergy
4479,CeAsSe,-1.431398015
4480,As(CN)3,0.594653556
4481,Eu3As4,-0.986794045
4482,As2Pb2S5,-0.677395533
4483,Eu(InAs)2,-0.612551598
4484,Eu3(AsPd)4,-0.919962072
4485,Cs5SiAs3,-0.41724291
4486,Cs5GeAs3,-0.400503902
4487,Ba3InAs3,-0.979202029
4488,Nb5As3,-0.548477495
4489,As3HO6,-1.607394807
4490,AsSeBr,0.557182015
4491,InFeAs,0.986847388
4492,BTe2As,1.143190065
4493,TlCoAs2,0.599388936
4494,GaAs2W,0.684606554
4495,BaHf2As,0.558714241
4496,GaReAs,0.991175922
4497,BiAs2Os,0.811133086
4498,BeSbAs2,0.633846275
4499,TaAsPb2,0.843175206
4500,Cu3As4,0.264183776
4501,NiAsO4,-1.198692017
4502,AsXe2F9,-1.63568688
4503,AsN9,0.303791992
4504,As5Pb3S10,-0.605513699
4505,Eu(AsRh)2,-0.801718151
4506,As2S3,-0.526865397
4507,Ba2(InAs)5,-0.547740743
4508,CsAs2Se3,-0.483168885
4509,As9Pb7S20,-0.627674803
4510,K5(AsPb)3,-0.369574995
4511,Cs2As8S13,-0.725877289
4512,Ca3(InAs2)2,-0.816388322
4513,GdAs2Pd3,-0.748435805
4514,ZrAsPd,-0.914461531
4515,Eu(AsPd)2,-0.796630739
4516,Li17(MnAs2)4,-0.526455105
4517,Li7VAs4,-0.649793627
4518,KBa2As5,-0.699591675
4519,Li13(Mn3As4)2,-0.419734394
4520,Mg3(AsO4)2,-1.977288894
4521,Li7MnAs4,-0.547573742
4522,Li19(Mn3As4)3,-0.407488734
4523,As4Pd5Pb,-0.296562963
4524,Ce3AsS3,-2.093363883
4525,FeCoAs,-0.130501941
4526,K(FeAs)2,-0.284039108
4527,Cu3AsSe4,-0.150448756
4528,Ba2As6O11,-1.728814704
4529,Li11TiAs5,-0.712988506
4530,In3AsSe3,-0.444516072
4531,Ga3Te3As,-0.322262344
4532,Li5GeAs3,-0.515629538
4533,Cr2AsSe,-0.014507221
4534,Cd3AsI3,-0.447596689
4535,LiNbAs2,-0.460976432
4536,Li27As10,-0.666292784
4537,In2AsSe,-0.25173259
4538,Li3MnAs2,-0.326123364
4539,K9(NbAs3)2,-0.483315502
4540,ZnCuAs,-0.0167102
4541,Li5TiAs3,-0.72857757
4542,Na2Sr3As4,-0.750108938
4543,Li11MnAs6,-0.502097806
4544,K3AsO4,-2.048732432
4545,K3As7,-0.363531416
4546,Li3As7,-0.291478804
4547,As12S13,-0.203808533
4548,K5As4,-0.391593309
4549,As24S25,-0.233950135
4550,Ba20As13,-1.065857023
4551,U2AsSe,-0.829017226
4552,CaAs3F15,-2.758503918
4553,Ca5Cu19As10,-0.351825654
4554,Bi15AsO25,-1.681421494
4555,Hg15(As2Cl3)4,-0.565618027
4556,HgAsS2,-0.36053633
4557,AsN2F7,-1.629934951
4558,In4As3Se,-0.248786808
4559,Pr3(ZnAs3)2,-0.588434415
4560,Ba(Hf2As3)6,-0.508376397
4561,NdAsSe,-1.453232553
4562,As2PdO6,-1.388754392
4563,Ca2As2O7,-2.527194012
4564,Rb2SiAs2,-0.446424047
4565,K2SiAs2,-0.458266125
4566,Eu(NiAs)2,-0.718194933
4567,Co8As3O16,-1.497186551
4568,Co2As2O5,-1.527166473
4569,Ni17(As3O16)2,-1.279858335
4570,Ca(CdAs)2,-0.595747894
4571,ThAs2,-1.047589258
4572,Cd(AsO3)2,-1.7207345
4573,KAs,-0.458842564
4574,TbCuAs2,-0.827272675
4575,Nb5(AsPd)4,-0.500059716
4576,ZnAs2,-0.155050537
4577,ZnAs,-0.128203596
4578,CdAs,-0.078536906
4579,NaCdAs,-0.38722155
4580,KHgAs,-0.358363282
4581,Cu2As,0.019715072
4582,GdAsO4,-2.798183636
4583,GdAsO3,-2.768027156
4584,PrAsO4,-2.791086763
4585,TlAsO4,-1.425867299
4586,TaAsO4,-2.586348337
4587,AsAuO3,-1.08803608
4588,TmAsO4,-2.795934264
4589,Li3As,-0.712099277
4590,Gd5(AsO6)2,-3.171061023
4591,Bi12AsO20,-1.657853552
4592,NbAs2,-0.521773482
4593,AsRhO4,-1.401947551
4594,VAsO4,-1.985775175
4595,Mn(AsO2)2,-1.769957653
4596,MgAs4,-0.226640129
4597,LuAsO4,-2.873107667
4598,As2Ru,-0.397442202
4599,Gd3AsO7,-3.275839055
4600,Gd2AsO5,-3.113644576
4601,Gd2As4O11,-2.382871134
4602,Gd3As5O12,-2.546211134
4603,Tl3AsSe3,-0.314904554
4604,Ge2As2O7,-1.842153694
4605,Si2As2O7,-2.476694671
4606,Sr(ZnAs)2,-0.665896126
4607,Sr(CdAs)2,-0.63191749
4608,Na2AsAu,-0.495967231
4609,Li2PrAs2,-0.874056982
4610,Li2NdAs2,-0.880813263
4611,SbAsO4,-1.744596594
4612,Zn2As2O7,-1.75988147
4613,Rb3As,-0.261963131
4614,LiAs,-0.485948909
4615,YAsO4,-2.844923286
4616,AsPd2,-0.378976732
4617,K2As2Pd,-0.523571688
4618,Li2CeAs2,-0.9848402
4619,Ba2GeAs2,-0.89083722
4620,ZrAsRu,-0.860205711
4621,Ba(MgAs)2,-0.947524312
4622,Ba(CdAs)2,-0.638636572
4623,Mn2ZnAs2,0.088249509
4624,Li3NdAs2,-0.994936433
4625,SrAsPt,-1.020297778
4626,BaAsPt,-0.997238588
4627,K(Cu2As)2,-0.181908661
4628,Pr2Ni12As7,-0.525160117
4629,Ba2AsAu,-0.944475346
4630,LiAsPd2,-0.522136489
4631,LiAsRh2,-0.550811204
4632,GeTe7As4,-0.015503866
4633,MgAsPt5,-0.489097147
4634,Mg(BeAs)2,-0.327635841
4635,U2Ni12As7,-0.389339247
4636,Yb2AsAu,-1.087082836
4637,Yb2Ni12As7,-0.519221334
4638,La(ZnAs)3,-0.582843652
4639,Ca2AsAu,-0.975588631
4640,Sr2AsAu,-0.968696081
4641,Sr(MgAs)2,-0.965781064
4642,Sr2CdAs2,-0.959720571
4643,Tb2Ni12As7,-0.539875647
4644,K5As2Au,-0.450340917
4645,Na3AsSe3,-0.804559871
4646,AsF5,-2.409819842
4647,Zr2NiAs2,-1.013348664
4648,Ho2NiAs2,-1.23606322
4649,Ca4As2O,-1.822046689
4650,Cs2As2Pd,-0.529017145
4651,CaAs,-1.089820745
4652,K2GeAs2,-0.40370794
4653,Rb2SnAs2,-0.417730885
4654,Cs2SnAs2,-0.449948297
4655,CeAsPd,-1.123338548
4656,NdAsPd,-1.18425847
4657,SmAsPd,-1.18410672
4658,HoAsPd,-1.195156627
4659,YbAsPd,-1.027809067
4660,Hg3(AsO4)2,-1.256335167
4661,Na8TiAs4,-0.534914101
4662,LiZnAs,-0.519865288
4663,LiAsF6,-2.714709949
4664,Li3AsO4,-2.282088493
4665,Ba(CuAs)2,-0.507732662
4666,Na(SnAs)2,-0.251132097
4667,Sr(SnAs)2,-0.551448728
4668,Ni5As2,-0.24117499
4669,LiBeAs,-0.487093882
4670,Ca(MgAs)2,-0.947461032
4671,Ca(ZnAs)2,-0.657356658
4672,NaBeAs,-0.395976513
4673,Yb(MnAs)2,-0.503959481
4674,TaMnAs,0.399328118
4675,MnNbAs,0.396949385
4676,LiCaAs,-0.972933328
4677,NaCaAs,-0.86272249
4678,ZrCoAs,-0.023941107
4679,TiCoAs,-0.132850819
4680,HfAsRh,-0.373454847
4681,ZrAsRh,-0.361205145
4682,K3BAs2,-0.348466751
4683,K2NiAs2,-0.423522259
4684,ZnAs3,0.366596621
4685,Sr3As,-0.33007438
4686,Rb3BAs2,-0.335924559
4687,Sr(GaAs)2,-0.649435409
4688,SmAs3,-0.523334889
4689,Si3As,0.563106649
4690,Tm2Ni12As7,-0.52514794
4691,ScAsO3,-1.769813354
4692,Mg5As,-0.065142653
4693,In3As,0.063543569
4694,Hf9AsW4,-0.260597386
4695,MgAs,-0.38270061
4696,Lu2Ni12As7,-0.51582052
4697,SrAsPd,-0.971784982
4698,BaAsPd,-0.937589998
4699,RbZn4As3,-0.292264036
4700,Rb(FeAs)2,-0.272461228
4701,RbAsO3,-1.38225334
4702,Hf9Mo4As,-0.262832298
4703,BaAs2Pd,-0.821848457
4704,NiAsO3,-0.325057278
4705,BaAs2Pt,-0.846629433
4706,Ni3As,-0.134416595
4707,NpAs3,-0.32528248
4708,NaSrAs,-0.87607952
4709,Mg2As,-0.345279553
4710,Ba3(AsO4)2,-2.704697512
4711,SiAs3,0.500577549
4712,SmAs2Au,-0.757326334
4713,SrAsO3,-2.291532596
4714,Yb4As2O,-1.947468486
4715,TbAs3,-0.506082898
4716,Sm2(CuAs)3,-0.777326588
4717,HfCoAs,-0.815916512
4718,YAs3,-0.49370309
4719,Sm2As2O5,-2.108510818
4720,RbAsF6,-2.777411495
4721,CsAsF6,-2.794589607
4722,Sr(AsO3)2,-2.250295912
4723,EuAsO3,-2.272326133
4724,Er3As,-0.379890251
4725,AsAu3,0.154310859
4726,RbCaAs,-0.851805672
4727,FeSbAs,-0.117085527
4728,BaCuAs,-0.749215508
4729,SrAs3,-0.602803534
4730,Nb2AsC,-0.612639522
4731,TiFe2As,-0.325522848
4732,BiAsO5,-1.289274123
4733,TaAsO5,-2.302626032
4734,MoAsO5,-1.682727888
4735,CrAsO5,-1.518271894
4736,Sb3(AsO4)4,-1.463197269
4737,AsWO5,-1.714921926
4738,Ti3(AsO4)4,-2.187478794
4739,Co3(AsO4)4,-1.213764997
4740,Bi3(AsO4)4,-1.416828336
4741,Sn3(AsO4)4,-1.607179645
4742,Fe3(AsO4)4,-1.401634419
4743,V3(AsO4)4,-1.760328703
4744,Cr3(AsO4)4,-1.538132055
4745,Mo3(AsO4)4,-1.721279528
4746,Mn3(AsO4)4,-1.502911418
4747,Ni3(AsO4)4,-0.979167515
4748,As4W3O16,-1.704921081
4749,SnAs2O7,-1.645513498
4750,SbAs2O7,-1.5310701
4751,BiAs2O7,-1.4722956
4752,As2WO7,-1.763977742
4753,NiAs2O7,-1.134130534
4754,CrAs2O7,-1.605053637
4755,VAs2O7,-1.767775211
4756,MnAs2O7,-1.529641082
4757,LaAu,-0.830409646
4758,Sm3Au,-0.234333627
4759,Sm2CuAs3O,-1.559644779
4760,HoAu,-0.892765137
4761,HfAu,-0.539700883
4762,DyAu,-0.888944863
4763,AuN,1.529055004
4764,Au,0.003112055
4765,AuC,2.245517626
4766,Na3Sr3GaAs4,-0.8275201
4767,TmAu,-0.90180039
4768,In2Au3,-0.177662224
4769,CeAu,-0.628236272
4770,ZrAu2,-0.57450582
4771,YAu2,-0.859668737
4772,TiAu2,-0.423689166
4773,ScAu2,-0.816463757
4774,LuAu2,-0.890315743
4775,HfAu2,-0.559269908
4776,ThAu,-0.615446623
4777,AuN2,0.42149386
4778,BaTi2As2O,-1.701790852
4779,FeBiAsO,-0.505787984
4780,ThAu2,-0.720807673
4781,Na2Ti2As2O,-1.346348504
4782,TbAu3,-0.721776709
4783,LuAu3,-0.72487503
4784,CeCdAsO,-1.868001854
4785,NaAu2,-0.362031013
4786,AuSe,0.146917446
4787,B2Au,0.667076649
4788,K2Sn(AsS3)2,-0.965381117
4789,SmAu6,-0.420805426
4790,DyAu2,-0.868781793
4791,ErAu,-0.895889452
4792,Li3Au,-0.406176748
4793,LiAu3,-0.357178985
4794,LuAu,-0.896430635
4795,Mg2Au,-0.510283468
4796,Mg3Au,-0.204232696
4797,MnAu2,-0.108258834
4798,NdAu,-0.762717223
4799,PrAu,-0.744152295
4800,ScAu,-0.80003426
4801,SmAu,-0.796531355
4802,TbAu,-0.850229698
4803,TiAu,-0.308329133
4804,Ti3Au,-0.227694853
4805,YAu,-0.856151295
4806,YbAu4,-0.553536846
4807,Zr3Au,-0.34064662
4808,Rb2Au3,-0.308002312
4809,UAu2,-0.275084885
4810,RbAu5,-0.188317103
4811,Be5Au,-0.093672895
4812,MnAu4,-0.07911727
4813,TiAu4,-0.280001973
4814,CdAu3,-0.123677835
4815,Be12Au,0.064041891
4816,MnAu,-0.004122306
4817,Ca3Au4,-0.786312186
4818,CaAu,-0.812626163
4819,BeAu2,-0.138821013
4820,Nd3Au4,-0.808545807
4821,KAu5,-0.225655662
4822,Na2Au,-0.285996868
4823,Sr(GeAu)2,-0.493892238
4824,Sn4Au,-0.069193297
4825,CdAu,-0.176121265
4826,Rb2LiAsO4,-2.124537614
4827,Cs2LiAsO4,-2.123187574
4828,Sn2Au,-0.128150577
4829,Ba2Zn3(AsO)2,-1.416818145
4830,NaZnAsO4,-1.948444073
4831,KSnAsO5,-2.046167616
4832,RbSnAsO5,-2.040592565
4833,BaZn2(AsO4)2,-2.146591913
4834,SrZn2(AsO4)2,-2.143502517
4835,RbScAsO4F,-2.854334007
4836,NbAu2,-0.114787533
4837,Th2Au,-0.422146498
4838,Te2Au,-0.071840347
4839,YbAu2,-0.812324873
4840,ZnAu,-0.200547865
4841,KNa4GeAs3,-0.41464012
4842,BaCu2(AsO4)2,-1.798102276
4843,RbAsOF4,-2.608558055
4844,Au3F8,-1.300076863
4845,KAsOF4,-2.60488377
4846,ZnAu3,-0.14042573
4847,SnAu,-0.182752205
4848,NaMg4(AsO4)3,-2.434678318
4849,Sr5As3O12F,-2.869470371
4850,ZrAu4,-0.421725818
4851,LiZnAsO4,-2.011935849
4852,Ba3TaAs3O,-1.544954729
4853,Hg5Au6,0.016505581
4854,Ba3NbAs3O,-1.516399981
4855,Sr3TaAs3O,-1.560393704
4856,SrAu5,-0.449426662
4857,K3Na2SnAs3,-0.474268471
4858,TlZnAsO4,-1.697311813
4859,LiFeAs2O7,-1.885517269
4860,Ba2Mn3(AsO)2,-1.405209698
4861,Ba2MnZn2(AsO)2,-1.481879085
4862,Sr2Mn3(AsO)2,-1.432312447
4863,BaCo2(AsO4)2,-2.000022042
4864,BaNi2(AsO4)2,-1.875897373
4865,SrV2(AsO5)2,-2.341490527
4866,Na3Cr2(AsO4)3,-2.069325565
4867,RbMn4(AsO4)3,-2.0004157
4868,NaMnAsO4,-2.044818984
4869,NaVAsO5,-2.173822707
4870,LiVAsO5,-2.195758479
4871,PbAu2,-0.077241337
4872,CuAu3,-0.015209123
4873,Nb3Au2,-0.142925568
4874,K2NaInAs2,-0.500254805
4875,CuAs2PbO7,-1.58283372
4876,KCu4(AsO4)3,-1.444812676
4877,MnSnAu,-0.044877397
4878,In2Au,-0.246055853
4879,BAsPbO5,-2.0900005
4880,Cu3Au,-0.03525067
4881,Pb2Au,-0.089098782
4882,Na3In2(AsO4)3,-2.000558198
4883,KAs4BrO6,-1.680427539
4884,AsS3(ClF2)3,-1.674814759
4885,KAs4IO6,-1.646490929
4886,Zr2Au,-0.418521527
4887,AsSe6IF6,-1.298242053
4888,AsSe3(ClF2)3,-1.614310273
4889,Hg3AsClO4,-1.099920689
4890,AsH8CN3O4,-0.993171575
4891,BaAsH3O5,-2.014512686
4892,BaAsHO4,-2.291375233
4893,LiAs(HO2)2,-1.768783026
4894,Na3AsH18Se4O9,-1.223850435
4895,CaZnAsHO5,-2.191306688
4896,CaAsH5O6,-1.855262209
4897,ZnHgAsHO5,-1.478824522
4898,CdAs2HF13,-2.399241528
4899,CaAs(HO)7,-1.767393609
4900,CaAs2(HO2)4,-1.863709406
4901,Na2AsH15O11,-1.521433049
4902,Ca5As4(HO2)10,-2.158217426
4903,Be3As2(H2O5)2,-2.055946473
4904,ErAu2,-0.87975395
4905,LiCoAsO4,-1.85141841
4906,SrCoAs2O7,-2.093203386
4907,SmFeAsO,-1.776156152
4908,LaFeAsO,-1.851998267
4909,NdMnAsO,-1.871425603
4910,LiMnAsO4,-2.091183428
4911,RbMoAsO6,-2.006133059
4912,MnAsH2O5,-1.708497641
4913,LiNiAsO4,-1.741156347
4914,Ca2MnAs2(H2O5)2,-2.145367506
4915,CsAu,-0.32664739
4916,Pr2Au,-0.538704533
4917,AuBr3,-0.157463901
4918,Au2O3,-0.466304822
4919,P3Au2,-0.113654886
4920,Nb3Au,-0.062559296
4921,AuCl3,-0.698417797
4922,AuI,-0.075632292
4923,TeAuI,-0.1389491
4924,Ga2Au,-0.234102263
4925,YbAu,-0.94889226
4926,Dy(SiAu)2,-0.553474704
4927,Sb3Au,0.04930897
4928,Th2AuF11,-3.61142617
4929,AuF5,-1.141451178
4930,CuAuSe4,-0.079834241
4931,BaAu2,-0.74055485
4932,BaAu5,-0.440777467
4933,BeAu,-0.131376321
4934,Ca3Au,-0.489968559
4935,Ca5Au2,-0.557293776
4936,Ca5Au3,-0.688960881
4937,Ca7Au3,-0.580700704
4938,Cd3Au,-0.131369075
4939,Cd5Au3,-0.171521686
4940,RbAu,-0.280065385
4941,GaAu,-0.226734673
4942,GaAu2,-0.151229448
4943,Hf2Au,-0.441708433
4944,Ho2Au,-0.643983237
4945,HoAu3,-0.723176473
4946,HoAu4,-0.597562614
4947,HoPbAu,-0.672669017
4948,KAu2,-0.306445613
4949,Mg13Au41,-0.391523016
4950,MgAu3,-0.410098662
4951,Mn2Au,0.179834349
4952,Mn2Au5,-0.08172176
4953,Mn9Au31,0.364519109
4954,Pb3Au,-0.069660124
4955,PrAu2,-0.76024071
4956,SmAu3,-0.692421428
4957,SnAu5,-0.047153162
4958,SrAu,-0.784207102
4959,Sr3Au2,-0.674471479
4960,Sr7Au3,-0.533636534
4961,VAu2,0.012476525
4962,Zn3Au,-0.153755295
4963,Tl2Au,-0.027179937
4964,Rb3Au7,-0.279368726
4965,DySnAu,-0.821717402
4966,AuCl,-0.508090543
4967,HoInAu,-0.744586752
4968,AsSClOF8,-2.135883732
4969,SrAu2,-0.739113825
4970,MgAu,-0.610302668
4971,CaAu2,-0.713392602
4972,AsHPbO4,-1.680808701
4973,AuBr,-0.136911108
4974,K2LiInAs2,-0.571324547
4975,EuAu5,-0.436357929
4976,In3Au10,-0.116252277
4977,U2CuAs2(H4O5)4,-1.857180243
4978,ZnAsHPbO5,-1.717286568
4979,ZnCuAsHO5,-1.513271858
4980,PrFeAsO,-1.741625309
4981,SrAsH3O5,-2.013456591
4982,CaCoAsHO5,-2.111213648
4983,As3Pb5ClO9,-1.646048092
4984,CaCuAsHO5,-1.971665259
4985,CuAu,-0.044960635
4986,CuAs4(H5O8)2,-1.452742638
4987,TlCuAsO4,-1.40110181
4988,As2S3(NF6)2,-1.900335935
4989,VAs2H4O9,-1.693769219
4990,KZr2(AsO4)3,-2.543940805
4991,As2Se2S(NF6)2,-1.828430666
4992,As2Se3(NF6)2,-1.770836048
4993,NaCo3As3(HO6)2,-1.661979651
4994,BaVAsO6,-2.470925507
4995,AuCl2,-0.642247206
4996,Cd2AsO4F,-1.872378709
4997,Zn3As2(HO)16,-1.413313731
4998,CaNiAsHO5,-2.025765009
4999,TiAs2H4O9,-1.89978988
5000,CsTiAsO5,-2.56392043
5001,NaCu4(AsO4)3,-1.441914058
5002,K3Nb2AsSe11,-0.723878862
5003,Cu3As4H18C8Br3(NO2)2,-0.450714233
5004,Cu3As4H18C8I3(NO2)2,-0.429212231
5005,CsScAs2(HO4)2,-2.186894138
5006,Fe2CoAs2(H5O7)2,-1.562780253
5007,LiFeAsO4,-1.994112065
5008,Mg7As6(HO6)4,-2.071919119
5009,LiGaAs2O7,-1.949000583
5010,YZnAsO,-1.986133513
5011,LaZnAsO,-2.071012111
5012,NaScAs2O7,-2.377007138
5013,LiScAs2O7,-2.389335804
5014,NaZr2(AsO4)3,-2.521467388
5015,Tl4Hg3Sb2(As2S5)4,-0.553385989
5016,AsP3H18C6(SO)6,-0.753041278
5017,BaZnAs2O7,-2.162686155
5018,KSnAsS5,-0.910444212
5019,Sb3As2S14(IF8)3,-1.869952864
5020,RbScAs2O7,-2.406833129
5021,SnSb2As2F18,-2.626083601
5022,AsS3(NF3)2,-1.560284181
5023,KCu2AsS3,-0.750281461
5024,BiAsPbO5,-1.740809082
5025,Cu7As6(PbO12)2,-1.422027613
5026,MgAs2(XeF9)2,-2.089102995
5027,Ba6Na2As2Ru2O17,-2.470819165
5028,AsSe(ClF2)3,-1.890572103
5029,HgAs4(S2I)2,-0.421273726
5030,CsAu2F7,-1.794832539
5031,AsSXeNF10,-1.712703251
5032,AsCS2N2OF5,-1.503207249
5033,Hg3SbAsS3,-0.37465312
5034,TeAs(IF2)3,-1.685424982
5035,AsC4S4N4Cl2O2F5,-1.03890372
5036,La3As2ClO7,-3.090260006
5037,Hg3AsS4Br,-0.497582412
5038,AsH5C2(OF3)2,-1.601572335
5039,MgAs2S2(OF3)4,-2.46728823
5040,AsC2N(OF3)2,-1.850175645
5041,TlHgAsS3,-0.548379325
5042,Te6As4C3(NF8)3,-1.736588586
5043,MgAs2(XeF5)4,-1.896853003
5044,Na4Cu(AsO4)2,-1.868390807
5045,SrMo2(AsO6)2,-2.108277532
5046,Hg3As8(S4Br3)2,-0.471299416
5047,Ca3Cu3(AsO4)4,-2.038864401
5048,ZnAs2C12(NF)12,-0.673575922
5049,AsCS3N2F11,-1.705280506
5050,MgTlAs(H6O5)2,-1.586626189
5051,MgAs2(XeF8)2,-2.203184031
5052,As2H3CF9,-1.872270335
5053,AsSeS3N5F6,-0.971197198
5054,ZnAs2C6S12N12(OF2)6,-1.09231738
5055,KAs4ClO6,-1.745634329
5056,Li3Fe2(AsO4)3,-1.982793312
5057,Bi6As9Se4S10(O4F13)5,-2.275333519
5058,TeAs(ClF2)3,-2.008977295
5059,Ni18Bi3AsS16,-0.627940096
5060,AsS2NF10,-2.047192088
5061,AsSOF9,-2.253382967
5062,LiAsH6(OF2)3,-1.998711515
5063,Na3Sb3(AsO7)2,-1.945237583
5064,RbBiAs6H24C8(S6N)2,-0.431159305
5065,RbNbAsClO5,-2.342836739
5066,Cd2BiAsO6,-1.674394158
5067,AsS(ClF2)3,-1.901250912
5068,Ba5As3ClO12,-2.753102026
5069,AsSe3(NF3)2,-1.33291087
5070,Nd5As4(ClO4)3,-2.877276671
5071,CuAs2S4(O2F3)4,-2.100377393
5072,CdAs2S18N12(OF2)6,-1.096586529
5073,Ca2BiAsO6,-2.557992898
5074,Cs2As2OF10,-2.705872288
5075,CaAs2(XeF5)4,-1.953181133
5076,Te2As2Se8S(OF6)2,-1.554756185
5077,Ca2As3Pb3ClO12,-2.174115667
5078,AsPCl3OF5,-2.081358254
5079,K2CaAs2O7,-2.301277551
5080,As2Cl3OF5,-1.899358462
5081,Ca5As3O12F,-2.850809378
5082,TeAs(BrF2)3,-1.773825735
5083,TlInAs2O7,-1.752248121
5084,SbAs3(Se2F3)2,-1.466127908
5085,AsS(IF3)2,-1.82401856
5086,KCu4AsS4,-0.642095515
5087,Te4As2S(OF6)2,-1.982100414
5088,As2Pb(XeF6)3,-1.912592957
5089,CuAsPbO4,-1.517795017
5090,AsH5COF6,-1.677462796
5091,KGaAs2O7,-1.957449996
5092,CdAs2(XeF5)4,-1.75522099
5093,K4AsH5S3O16,-2.007142439
5094,MnTl2As2S5,-0.647779031
5095,CaMgAsO4F,-2.907472646
5096,Te2AsCNF6,-1.562807649
5097,TlSb3(AsS4)2,-0.607323278
5098,K2Cu3(AsO3)4,-1.587880516
5099,CuAs4S3Cl,-0.506714219
5100,RbInAs2O7,-1.937276333
5101,AsS4N4F5,-1.099586775
5102,CdAs2S2(OF3)4,-2.284288124
5103,Zn3TeAs2Pb3O14,-1.770270953
5104,Tl2CuAsO4,-1.327792799
5105,Nd5As2ClO10,-3.242774942
5106,Ca3TiBe2Si2(As3O10)2,-2.680472493
5107,AsS(BrF2)3,-1.677200764
5108,AsS6N5F6,-1.042569143
5109,AsC2S2(OF3)3,-1.802862768
5110,K2UAs2O9,-2.468667839
5111,LiUAsO6,-2.712912192
5112,Cs2As4Pd3O14,-1.566243956
5113,AsC3N3F8,-1.524473677
5114,Hg3AsBrO4,-1.000819944
5115,NaAsH4O5,-1.623079705
5116,K3Nd(AsS4)2,-1.294174691
5117,NaCuAsO4,-1.604364944
5118,Hg3AsS4Cl,-0.587136537
5119,Co2AsClO4,-1.53481036
5120,RbMgAs(H6O5)2,-1.667170059
5121,Na4TiAs2O9,-2.323622273
5122,AsSe(IF2)3,-1.615483738
5123,NaInAs2O7,-1.913866755
5124,NaAs4BrO6,-1.639249446
5125,Nd2As6Xe5F46,-2.326722859
5126,Sr5As3ClO12,-2.773451909
5127,Na2NbAsO6,-2.405506563
5128,CuAs2S8N8(OF7)4,-1.588662732
5129,TmAu2,-0.885572902
5130,Ba2Cu7(AsO4)6,-1.639419665
5131,NaNb2AsO8,-2.591998001
5132,Li4Be3As3ClO12,-2.370348682
5133,AsSXe2(OF3)3,-1.701223392
5134,SbAs3(S2F3)2,-1.665270482
5135,AsS4N5F6,-1.035660884
5136,SrCuAs2O7,-1.980638406
5137,K3NbAs2O9,-2.279901823
5138,AsPbClO2,-1.644700386
5139,AsC4S2Cl2O2F13,-1.690378125
5140,Na2Ca(AsO3)4,-2.048902278
5141,Ca2AsClO4,-2.765557316
5142,Na5Bi2As5O18,-1.929486102
5143,Te3As2S(OF6)2,-2.078823144
5144,Cu2As4S3Cl2,-0.55260506
5145,K3Sm(AsS4)2,-1.291892493
5146,K4Mn(AsS4)2,-1.066833789
5147,AsSe2S(NF3)2,-1.453444722
5148,K6NbAs3O,-0.856463486
5149,AsCSF11,-2.173838512
5150,AsCSCl2F9,-1.959852354
5151,As3Pb2ClO6,-1.661775619
5152,As2Pb4S6ICl,-0.796540254
5153,AsSeS2N2ClF6,-1.477457439
5154,K3Bi2(AsO4)3,-1.961475256
5155,Na4Ce(As2O7)2,-2.187258278
5156,Mg2BiAsO6,-2.329431152
5157,Ba2Mn2As2O,-1.238152792
5158,CsAsOF4,-2.615592859
5159,MnAs2S2(OF3)4,-2.352246815
5160,Ca2YAs(WO6)2,-2.778488043
5161,K2Mo3(AsO5)4,-1.907703938
5162,KNi3As3O11,-1.568364367
5163,KFeAs2O7,-1.893062194
5164,ReAsC5SNO5F7,-1.563254816
5165,NiBiAsO5,-1.583996311
5166,K2MoAs2O9,-2.000019767
5167,Na3NbAs2O9,-1.887603946
5168,Rb2MoAs2O9,-1.996589568
5169,NaNiAsO4,-1.682892908
5170,MnBiAsO5,-1.890161844
5171,KMoAsO6,-2.003757724
5172,CaFeSbAs2O7,-2.097022551
5173,NiAs2S6(NF3)6,-1.54533739
5174,As3Pb5ClO12,-1.771211271
5175,Na3Fe2(AsO4)3,-1.956504484
5176,BaV(AsO4)2,-2.262981018
5177,NiAs2S6(OF)12,-2.06424875
5178,RbMn6As7O24,-1.930756817
5179,KNiAs3F18,-2.520869463
5180,KNiAsO4,-1.725176923
5181,K3V3(AsO7)2,-2.191379868
5182,K3Bi5(AsO4)6,-1.871546568
5183,LiMo2AsO9,-1.999049293
5184,LiMoAsO6,-1.988159875
5185,Ba2Mn(AsO4)2,-2.473686638
5186,SnHg6(As2Br3)2,-0.35925566
5187,YbHg6As4Br7,-0.505133483
5188,CrHg6As4Br7,-0.373390611
5189,Li15Au4,-0.350483732
5190,K8NbAs5Pb,-0.468888498
5191,In3Au7,-0.140891637
5192,Nd17Au36,-0.768010511
5193,K6NbTlAs4,-0.473886706
5194,CdHg6(As2Br3)2,-0.376512992
5195,Hg3AsSe4Br,-0.249995422
5196,TmAu3,-0.728341683
5197,Cs2SnAs2Se9,-0.450817479
5198,Hg6MoAs4Cl7,-0.679443307
5199,Hg9Bi2(AsBr3)4,-0.429770041
5200,YbAu3,-0.688258055
5201,TmInAu2,-0.700208181
5202,InSi2As(H3C)8,-0.27746321
5203,GaSi2As(H3C)8,-0.293489795
5204,CaAu5,-0.416061505
5205,Yb5Au3,-0.810064241
5206,PrAu6,-0.419002099
5207,SbAsPCl13,-1.17341924
5208,Ta3Au,-0.028509065
5209,CdHgAsBr,-0.375792261
5210,TiHg6As4Br7,-0.469342174
5211,InAu3,-0.125654693
5212,Er5Zr3(Ni4As3)4,-0.823162726
5213,Bi8AsAuCl9,-0.89984582
5214,Hg3AsSe4I,-0.211742442
5215,BiAu2,-0.053380877
5216,Yb7Au3,-0.676469443
5217,ZnSi4As2(H3C)12,-0.300563493
5218,TbAu2,-0.860876659
5219,NbAsPCl13,-1.373000629