id,Composition,FormationEnergy
3734,Na2Li3Ti3Al(PO4)6,-2.902474852
3735,LiAlVO4,-2.760192912
3736,Li2AlNiO4,-2.148343654
3737,Li2AlVO4,-2.705205629
3738,LiAl2FeO6,-2.452500491
3739,LiAlNiO3,-2.292303348
3740,LiAlCoO3,-2.448580151
3741,LiMnAlO3,-2.653009296
3742,LiMnAlO4,-2.5370361
3743,Li2AlFeO4,-2.562953664
3744,Li3AlNiO4,-2.20540708
3745,Li9Al(NiO4)2,-1.966604595
3746,LiAlCrO3,-2.615957445
3747,LiAlCrO4,-2.60190148
3748,LiAlFeO3,-2.584083352
3749,Li3AlCrO5,-2.543705104
3750,Li3Al2FeO6,-2.694959218
3751,Li3MnAlO4,-2.470537979
3752,Li4Al3Cr3(SbO8)2,-2.604401081
3753,Li9Mn2AlO8,-2.207839849
3754,Li2MnAl2O6,-2.68912658
3755,Li3AlFeO5,-2.349193453
3756,LiAlFeO4,-2.345300254
3757,Li9Al(CoO4)2,-2.091045607
3758,Li3Al(FeO3)2,-2.354789702
3759,Li2Al2FeO6,-2.586747077
3760,Li3AlCoO4,-2.345870578
3761,Li3AlFeO4,-2.450730101
3762,Al3P3H9C2NO13,-2.066098844
3763,AlZnH16N(OF)6,-1.791033129
3764,Al3Cr3(SbO8)2,-2.288102403
3765,AlNiH16N(OF)6,-1.745854222
3766,Li2AlCr2SbO8,-2.504345537
3767,Al6H16C5(Cl2O)6,-1.405251006
3768,NaLiTiAl(PO4)3,-2.976720134
3769,NaLi3Ti2Al2(PO4)6,-2.976933371
3770,Li6AlFeO6,-2.288698291
3771,RbAl(SO10)2,-0.352699957
3772,As3Rh,-0.435825311
3773,Ta5As4,-0.520780098
3774,LiSmAlF6,-3.610493046
3775,MgAlBO4,-3.195515257
3776,Al2H16S3O20,-1.853857158
3777,NaAl6Fe3Si6B3H3O30F,-2.919388064
3778,Nd3MnAlS7,-2.016963099
3779,Mg2AlB2Ir5,-0.591555874
3780,Ca5Al2(SiN4)2,-1.394997554
3781,Ce3MnAlS7,-1.967980688
3782,Ce3MgAlS7,-2.098530514
3783,La17Al4(Si3N11)3,-1.575088259
3784,La3MnAlS7,-2.117118449
3785,Pr3MnAlS7,-2.01801696
3786,NaAlPO4F,-3.104446787
3787,Sm3MnAlS7,-2.014802022
3788,La3AlVS7,-2.170673382
3789,Ca2Al2Si6SnO22,-2.91599963
3790,Li3Al2CrO6,-2.849923669
3791,Ca4Al6SO12,-3.402836098
3792,Sr4Al6SO12,-3.397424987
3793,Tc2As3,-0.280743931
3794,HoAl3(PbO4)2,-3.004576405
3795,LiAlPdF6,-2.902344375
3796,K2NaAlP2,-0.555104909
3797,K2NaAlAs2,-0.573915712
3798,As2Se3,-0.114650898
3799,Al6Cd4SO12,-2.741216408
3800,Mn4As3,-0.175455708
3801,Sr4Al6TeO12,-3.348380776
3802,SrAl2P2(O4F)2,-3.353710072
3803,Al6Cd4TeO12,-2.703818551
3804,Na2LiAlP2,-0.64204074
3805,TcAs3,0.398761178
3806,Zr3As2,-1.054710166
3807,Tc3As,0.162385912
3808,SnAs3,0.354550394
3809,ScAlCO,-1.875442284
3810,Hg3As,0.275983214
3811,GeAs3,0.412696268
3812,K2Al2O3F2,-3.226629723
3813,Nd3AlNiS7,-1.937447574
3814,Rb2Al2Si3O10,-3.199164703
3815,PrAs3,-0.529726544
3816,TmAs3,-0.455089286
3817,SrAlGeH,-0.541497823
3818,Eu2SrAl2O7,-3.314646602
3819,BaAl2B2O7,-3.266753021
3820,As3W,0.615223884
3821,Ca6Al2NF,-1.007469607
3822,Rb2AlInH6,-0.158328367
3823,Cs2AlInH6,-0.172234599
3824,Rb2AlTlH6,-0.187102568
3825,Cs2AlTlH6,-0.202697807
3826,Cs2NaAlH6,-0.313040365
3827,Cs2AlGaH6,-0.155859764
3828,HfAs,-1.001428125
3829,La8Al7GaO24,-3.647299083
3830,La7YAl8O24,-3.716943026
3831,La7ScAl8O24,-3.670955904
3832,La8Al7BO24,-3.595443621
3833,La8Al7InO24,-3.586523574
3834,La8MgAl7O24,-3.647847588
3835,TiAlFeCo,-0.573229508
3836,MoAs,-0.222254048
3837,Sr2AlGaCu2O7,-2.351457593
3838,Sr2YTi2AlO7,-3.261541282
3839,Sr2Ti2AlGaO7,-2.811725264
3840,Sr2AlGaSn2O7,-2.368678112
3841,Sr2YAlSn2O7,-2.718807331
3842,AlBi3Se2ClO8,-1.462874123
3843,AlSb3Se2ClO8,-1.392651632
3844,AlSn3Se2ClO8,-1.483808818
3845,Al5Si6Cu3(O7F2)3,-2.878900421
3846,Ba2AlTlNi2O7,-1.748452721
3847,Ba2AlTlCr2O7,-2.239161693
3848,Ba2Mn2AlTlO7,-2.184602052
3849,Sr2AlGaFe2O7,-2.557520558
3850,Ti3AlSe2ClO8,-2.280824213
3851,AlCo3Se2ClO8,-1.44574232
3852,BaAlCuWO5,-1.947549832
3853,AlV3Se2ClO8,-1.802839383
3854,Sr2AlGaW2O7,-2.164024839
3855,AlNi3Se2ClO8,-1.33135683
3856,AlMo3Se2ClO8,-1.485049253
3857,AlFe3Se2ClO8,-1.67531369
3858,AlW3Se2ClO8,-1.634976811
3859,Sr2Mn2AlTlO7,-2.243990857
3860,Sr2AlTlV2O7,-2.351867445
3861,Sr2AlTlCo2O7,-2.015462183
3862,Sr2AlTlFe2O7,-2.164406169
3863,Ba2Ti2AlTlO7,-2.668637914
3864,Ba2AlTlCu2O7,-1.885994201
3865,Ba2AlTlSn2O7,-1.94810167
3866,Sr2AlCu2SbO7,-2.234283729
3867,Ba2AlTlCo2O7,-1.899056855
3868,Ba2AlTlFe2O7,-2.024174581
3869,Ba2AlTlW2O7,-1.6656108
3870,Sr2AlCu2SnO7,-2.242084274
3871,Ba2AlTlV2O7,-2.392181075
3872,Sr2AlCu2BiO7,-2.197114002
3873,Sr2AlCr2GaO7,-2.596435968
3874,Sr2TaAlCu2O7,-2.463616006
3875,Sr2YAlCr2O7,-2.979636685
3876,Sr2TiAlCu2O7,-2.589273087
3877,Sr2YAlCo2O7,-2.784855718
3878,Sr2AlGaCo2O7,-2.4221
3879,Sr2YAlNi2O7,-2.594601166
3880,Sr2AlV2GaO7,-2.480524529
3881,Sr2YAlW2O7,-2.511425921
3882,Sr2YMn2AlO7,-2.98022739
3883,Sr2YAlV2O7,-2.820328385
3884,Sr2AlGaNi2O7,-2.222269563
3885,Sr2YAlFe2O7,-2.906818683
3886,BaTiAlCuO5,-2.484467526
3887,BaAlCuBiO5,-1.908432331
3888,BaAlCuSbO5,-1.899901715
3889,BaAlCuSnO5,-1.982917351
3890,BaAlFeCuO5,-2.073178576
3891,BaMnAlCuO5,-2.093920263
3892,BaAlCuNiO5,-1.763310923
3893,BaAlCoCuO5,-1.862919386
3894,BaAlCuMoO5,-1.94864942
3895,BaAlCrCuO5,-2.141997167
3896,BaAlVCuO5,-2.220764913
3897,Sr2AlFeCu2O7,-2.255347909
3898,Sr2MnAlCu2O7,-2.265551009
3899,Sr2AlCoCu2O7,-2.167743135
3900,Sr2AlCu2NiO7,-2.017524373
3901,Sr2AlCrCu2O7,-2.270703526
3902,Sr2AlCu2MoO7,-2.193714021
3903,Ti13Al4Si2(SbO14)2,-2.808647637
3904,Al4Si2Sn13(SbO14)2,-2.126439604
3905,Al4Si2Cu13(SbO14)2,-1.772757768
3906,Al4Co13Si2(SbO14)2,-2.112822376
3907,Al4Si2Ni13(SbO14)2,-1.874641255
3908,Al4Fe13Si2(SbO14)2,-2.32482067
3909,Al4Cr13Si2(SbO14)2,-2.416271451
3910,Al4V13Si2(SbO14)2,-2.462973143
3911,HoAs,-1.038219567
3912,ErAs,-1.022017733
3913,Ba5As3,-1.006105787
3914,V2AsC,-0.537156108
3915,Ca5As3,-1.112875883
3916,GaAs,0.067075505
3917,MnAsRu,-0.212289354
3918,TeAs,0.105425373
3919,TiAs,-0.907406816
3920,InAs,-0.23862936
3921,TlAs,0.111924302
3922,CrCo2As,0.025976049
3923,B2AsP,-0.198703699
3924,LiMnAs,-0.290246409
3925,LiFeAs,-0.147308145
3926,LiCdAs,-0.218590288
3927,MgSnAs2,-0.31254881
3928,BeSnAs2,-0.177190781
3929,BeSiAs2,-0.213020412
3930,BeGeAs2,-0.176195125
3931,NdAs,-1.07773006
3932,CsRbAs,-0.166402405
3933,SmAs,-1.073384707
3934,UTeAs,-0.648989307
3935,Ca2As,-0.946240457
3936,Sr3AsP,-0.581074131
3937,Sr3AsN,0.216188781
3938,Sr3SbAs,-0.444938317
3939,Ca3AsN,0.157774111
3940,Ca3SbAs,-0.917093375
3941,Ca3BiAs,-0.908770403
3942,Sr3As2,-0.724375646
3943,Ba3As2,-0.64725644
3944,Ba3SbAs,-0.813767361
3945,Ba3BiAs,-0.822204919
3946,Sr3BiAs,-0.880320339
3947,Ba3AsP,-0.681458551
3948,Ca3AsP,-0.862748573
3949,Ba3AsN,0.291463011
3950,NaLi2As,-0.12684977
3951,MgSiAs2,-0.311947831
3952,MgGeAs2,-0.268779668
3953,Mn2CoAs,-0.067277558
3954,Eu(ZnAs)2,-0.669938419
3955,Mg2ZnAs2,-0.305113608
3956,Ga2BiAs,-0.107906351
3957,Ca(BeAs)2,-0.61685148
3958,CoAs2,-0.300084373
3959,KCdAs,-0.429281578
3960,Li3LaAs2,-1.024977641
3961,MnCuAs,-0.012308905
3962,NbGeAs,-0.437497205
3963,KMgAs,-0.689408827
3964,ThAsSe,-1.4304815
3965,ThAsS,-1.76981339
3966,ThTeAs,-1.168499715
3967,Ce(As3Ru)4,-0.481844584
3968,Ce(FeAs3)4,-0.411600634
3969,EuAsPd,-1.018601597
3970,InAsPt5,-0.349159758
3971,InAsPd5,-0.499688158
3972,CdAsPd5,-0.394646528
3973,CdAsPt5,-0.246768331
3974,GaAsPd5,-0.498502486
3975,TlAsPt5,-0.141794932
3976,ZnAsPt5,-0.310186606
3977,LaAs2Au,-0.811278788
3978,Yb(ZnAs)2,-0.689473032
3979,LaTeAs,-1.307472189
3980,Sr(Cu2As)2,-0.343405017
3981,Eu(Cu2As)2,-0.372752958
3982,CeAsRh,-1.144774654
3983,Cd2As2O7,-1.683903595
3984,SrAs,-1.080842196
3985,BaLiAs,-0.941200278
3986,Cd3As2,0.062552318
3987,CeAsO4,-2.73623248
3988,RbAs,-0.430009429
3989,NiAsSe,-0.289405618
3990,AsPdS,-0.579699172
3991,AsPdSe,-0.358210055
3992,LaAsRh,-1.165223398
3993,YCuAs2,-0.819272392
3994,DyCuAs2,-0.819630678
3995,ErCuAs2,-0.798633255
3996,TmCuAs2,-0.785809183
3997,TiTeAs,-0.687143711
3998,LaAsPd,-1.269985067
3999,Dy(Ni2As)2,-0.631961347
4000,Na3As,-0.421172606
4001,Tm2NiAs2,-1.214970357
4002,BAsO4,-2.100204456
4003,Sr3(SiAs2)2,-0.831752694
4004,Ba3(SiAs2)2,-0.80456148
4005,TlAsPd5,-0.358099758
4006,Nd(AsPd)2,-0.855156569
4007,CuAs,0.051949783
4008,Ti3As,-0.495070634
4009,YbAsO4,-2.297053829
4010,SrCuAs,-0.80900227
4011,LiMgAs,-0.747571333
4012,MnAsPd2,-0.245570439
4013,SmAsO4,-2.83638298
4014,HoAsO4,-2.867961273
4015,NaZnAs,-0.421003108
4016,Cu2As2O7,-1.355207727
4017,ErAsPd,-1.18987846
4018,Rb2As2Pt,-0.494250049
4019,EuAsO4,-2.464070525
4020,Cd3(AsO4)2,-1.682307433
4021,NdAs2,-0.988847948
4022,Ba4SiAs4,-0.996905
4023,Ba4GeAs4,-0.971571618
4024,K3As,-0.331610327
4025,K3Cu3As2,-0.312951982
4026,AsPO5,-2.084195112
4027,SbAsO5,-1.751470667
4028,Sr(As3Pt2)2,-0.676630794
4029,Ba(As3Pt2)2,-0.66686089
4030,K5CuAs2,-0.352018924
4031,KAsSe2,-0.622995527
4032,Ba(Cu2As)4,-0.214985505
4033,Ge(Te2As)2,-0.028313786
4034,Ge2Te5As2,-0.034181933
4035,BaAs3,-0.62418121
4036,Sr3As4,-0.960470305
4037,K2GaAs2,-0.494404061
4038,Rb2GaAs2,-0.481209346
4039,Na2Ga2As3,-0.412112385
4040,K2Ga2As3,-0.469719162
4041,Zn3(AsO4)2,-1.779561728
4042,Sr4TiAs4,-1.127079005
4043,Ba4TiAs4,-1.102650319
4044,Rb2As3,-0.419375478
4045,Cs2As3,-0.459966458
4046,Tl3AsO4,-1.440925396
4047,Ba(MnAs)2,-0.552589407
4048,AsRu,-0.267320014
4049,CoAs,-0.264318019
4050,CrAs2,-0.125007468
4051,CrAsRh,-0.256081358
4052,K2CuAs,-0.353760336
4053,Na2CuAs,-0.373457779
4054,Li2CuAs,-0.519609274
4055,KZnAs,-0.469120692
4056,NpAsS,-1.326418819
4057,YAsPt,-1.230955516
4058,Sr2As,-0.863915127
4059,Sr5As3,-1.061610378
4060,Zn3As2,-0.141195318
4061,Ba3(LiAs)4,-0.9269819
4062,As2O3,-1.641044066
4063,Mg(As2Rh3)2,-0.532654185
4064,Ca(As2Rh3)2,-0.659590705
4065,Sr(As2Rh3)2,-0.631803819
4066,Ba(Cu2As)2,-0.325462037
4067,Co5As2,-0.09382647
4068,CoAsS,-0.657932968
4069,Mg4As6Ir7,-0.440692995
4070,Yb2Cu4As3,-0.633150599
4071,YAs,-1.064024143
4072,SmNiAs,-1.040733595
4073,EuNi5As3,-0.540003002
4074,Na5GeAs3,-0.401674224
4075,K5SnAs3,-0.443682122
4076,TiAs2O7,-2.20722344
4077,SrNi5As3,-0.519446261
4078,Ba3(SnAs2)2,-0.818830368
4079,Rb5SiAs3,-0.399712737
4080,Sr3(GeAs2)2,-0.798455368
4081,ThAs,-1.395955627
4082,Ca5(GaAs3)2,-0.951222649
4083,Na5AsO5,-1.897371644
4084,NaAsO3,-1.905608467
4085,As2O5,-1.575906176
4086,Fe12As5,-0.070139336
4087,K7TaAs4,-0.469258598
4088,Na5SiAs3,-0.426599828
4089,Co2As,-0.135258166
4090,Rb3AsSe4,-0.827820971
4091,K7NbAs4,-0.46902711
4092,Rb7NbAs4,-0.416340659
4093,Ca3(GeAs2)2,-0.77919637
4094,Ga2AsRh5,-0.523600144
4095,K3AsSe3,-0.925693075
4096,SiAs,-0.091176624
4097,Ca5(SnAs3)2,-0.873010595
4098,CaAs3,-0.560269714
4099,CrAsO4,-1.95628286
4100,Mn2As2O7,-1.917176895
4101,Co(AsO3)2,-1.650525875
4102,Ni(AsO3)2,-1.550796611
4103,FeAsO4,-1.775125804
4104,Mn(AsO3)2,-1.851579396
4105,Ni3(AsO4)2,-1.408789513
4106,Cu3As,0.018764538
4107,EuAsAu,-0.919148598
4108,NiAsRh,-0.04301027
4109,UCoAs2,-0.570831937
4110,NiAs2,-0.252619863
4111,NpAs2,-0.544513095
4112,Mg3As2,-0.630246018
4113,UCuAs2,-0.480923758
4114,As2PbS4,-0.601587824
4115,As2PbO6,-1.753971032
4116,La(NiAs)2,-0.87745707
4117,FeAs2,-0.26053747
4118,Yb(As2Rh3)2,-0.699967668
4119,NpAsSe,-0.946030076
4120,Eu(MnAs)2,-0.506544668
4121,GdCuAs2,-0.824885723
4122,MnAsRh,-0.224366157
4123,RbMnAs,-0.248890312
4124,AsPd3Pb2,-0.341718158
4125,VAsRh,-0.468730178
4126,Fe2As,-0.070525262
4127,As2Pd,-0.322046722
4128,LaAs,-1.204893576
4129,Cu3AsS4,-0.528532783
4130,Cr2As,-0.051997823
4131,Ba(CoAs)2,-0.611283562
4132,NbAs,-0.669561827
4133,NaMnAs,-0.280435859
4134,LiCoAs,-0.497153512
4135,CrAs,-0.192658235
4136,NpTeAs,-0.632869195
4137,EuAsPt,-1.091593417
4138,MnVAs,-0.25346458
4139,USbAs,-0.496238952
4140,Nd(NiAs)2,-0.828948384
4141,Eu(FeAs)2,-0.581337189
4142,NpAs,-0.543545354
4143,Eu4As3,-1.232418654
4144,Ce(NiAs)2,-0.79658827
4145,Ce4As3,-1.188655319
4146,Cu3(AsO4)2,-1.307975791
4147,SiAs2,0.050887879
4148,HoCuAs2,-0.807260594
4149,Mg6Ni16As7,-0.358105243
4150,SiNi2As,-0.3893601
4151,Na3InAs2,-0.44831397
4152,Mn6Ni16As7,-0.21936978
4153,K2In2As3,-0.429875982
4154,Cu4As2O9,-1.258409069
4155,KMnAs,-0.25208241
4156,CuAs2,0.081144987
4157,NbSiAs,-0.589175538
4158,Ba(Co5As3)2,-0.29857811
4159,Yb4As6Rh7,-0.960371224
4160,NaFeAs,-0.286040578
4161,UNiAs2,-0.609905279
4162,Cr3AsN,-0.349337226
4163,Cu(AsO2)2,-1.413885397
4164,EuCuAs,-0.841932122
4165,Mg4As6Rh7,-0.64713502
4166,La(FeAs3)4,-0.404054384
4167,Cs6InAs3,-0.387436095
4168,CoAsRh,-0.312352727
4169,UAsSe,-0.961438701
4170,InAsF6,-2.429114918
4171,CaFe4As3,-0.348321333
4172,AsI3,-0.199378571
4173,AsCl3,-1.159858872
4174,AsCl2F3,-1.890982518
4175,NiAs,-0.283647943
4176,Sr5As3H,-1.069002383
4177,Re3As7,-0.077700888
4178,Co7(AsO6)2,-1.518716484
4179,Ni2As2O7,-1.437012255
4180,AsPd5,-0.275974066
4181,As2Pt,-0.519138001
4182,FeAs2O7,-1.529753848
4183,Co3(AsO4)2,-1.591432435
4184,TbAs,-1.538942041
4185,Na4As2O7,-2.032044291
4186,As2SO6,-1.775324756
4187,AsCF3,-1.501378241
4188,Hg3As2F12,-2.157382689
4189,Ca3AsBr3,-1.793663055
4190,SbAsF8,-2.578578159
4191,AsO2,-1.601016255
4192,NaAsSe2,-0.548392299
4193,TeAsF5,-2.202575599
4194,As3(HO2)5,-1.512346197
4195,SnAsF7,-2.547120307
4196,As(IF2)3,-1.742415452
4197,CeAs,-1.420102297
4198,Cd4As2I3,-0.362601269
4199,As4S3,-0.39602078
4200,Cd2As3I,-0.213789717
4201,As(S2F3)2,-1.834536302
4202,Zn3(AsO3)2,-1.775069087
4203,As4(Pb3S5)3,-0.749557348
4204,Ge19(AsI)4,-0.088115867
4205,K5As3O10,-2.034235622
4206,Ba2As,-0.822128303
4207,As2S2F3,-1.57304523
4208,AsH3,0.746233236
4209,As2S2O9,-1.798885324
4210,AsXeF7,-1.914063995
4211,V3AsC,-0.52058082
4212,Cd2AsCl2,-0.935970068
4213,SbAs2Cl13,-1.090092629
4214,Ba(GeAs)2,-0.503075149
4215,Cd3AsCl3,-1.002998492
4216,BiAsO4,-1.782625888
4217,AsClF8,-1.931966318
4218,As2(SO4)3,-1.802886092
4219,Ca(Cu2As)2,-0.34607118
4220,AsF3,-2.494568913
4221,Ca3AsCl3,-2.258270828
4222,KAs2F7,-2.649483533
4223,SbAsO3,-1.713834214
4224,Ba2As2S5,-1.462507919
4225,As(BrF2)3,-1.684061107
4226,Hg2AsCl2,-0.646038899
4227,Ni11As8,-0.305389024
4228,CaAsPt,-1.020483968
4229,Ba2As2Se5,-1.035636994
4230,TlAs5S8,-0.541354083
4231,Li3AsS3,-1.214654789
4232,Ge5(Te4As)2,-0.048876259
4233,As2PbO4,-1.662337858
4234,Ca2AsI,-1.413247239
4235,RbAsSe2,-0.623529063
4236,CsAsSe2,-0.640195187
4237,Hg4As2I3,-0.166773433
4238,AsBr5F6,-1.398662832
4239,U2Cu4As5,-0.360068401
4240,Cr4As3,-0.112952278
4241,Cu6As4S9,-0.516577382
4242,K6Sn3As5,-0.438717375
4243,CaAsPd,-0.948884424
4244,Cs(FeAs)2,-0.271534648
4245,Hg2As3Br,-0.142122127
4246,Cd2As3Br,-0.285149675
4247,Nb3Te3As,-0.540133771
4248,KLi2As,-0.592257538
4249,B2AsCl2,-0.674046845
4250,Te7As2F12,-1.748862332
4251,Hg4As2Br3,-0.279674568
4252,Zr6CoAs2,-0.729137806
4253,GeAsSe,-0.176089314
4254,K2Te2As,-0.690738088
4255,Na2Te2As,-0.56259998
4256,Sr4As3,-1.13217613
4257,Zn4As2O9,-1.77897449
4258,K4HgAs2,-0.445692464
4259,Rb3AsSe16,-0.334288004
4260,Zn(AsO2)2,-1.705706121
4261,K4BeAs2,-0.416605036
4262,K4CdAs2,-0.431354011
4263,CuAsSe2,-0.028656371
4264,LaAs2,-1.061793037
4265,AsCl3O,-1.146333479
4266,Nb9As7Pd,-0.582294587
4267,AsPbF7,-2.581814911
4268,La3AsI3,-1.469271523
4269,AsKrF7,-1.757499143
4270,As2Kr3F16,-1.55899739
4271,AsCl5,-0.929936856
4272,Cs3AsO4,-2.033130207
4273,ZrTiAs,-0.984237976
4274,Na3As7,-0.271049478
4275,TlAsSe2,-0.245176503
4276,HgAsO3,-1.380009859
4277,KAsO2,-1.906645147
4278,RbAsO2,-1.880247032
4279,Cs3As5O9,-1.831847617
4280,CdSiAs2,-0.122683796
4281,CsAs4F13,-2.592452613
4282,Hg4As2O7,-1.174671014
4283,As(S8I)3,-0.593422246
4284,Ca2As3,-0.881925322
4285,AsI5F6,-1.458706979
4286,As2Pb8O13,-1.654189933
4287,Ca4As7Ir8,-0.629525156
4288,CuAsF7,-2.234958548
4289,BaAs2,-0.783956802
4290,Fe4As2O11,-1.788773203
4291,V4As2O13,-2.158176539
4292,TbAsO4,-2.863692501
4293,K2NaAs,-0.378937091
4294,K(AsRh)2,-0.617072626
4295,Li31Zr2As13,-0.61558794
4296,NaAsO2,-1.878001698
4297,KSnAs,-0.402065325
4298,U2AsN2,-1.458654188
4299,ZnSiAs2,-0.193613765
4300,Sr(AsS2)2,-1.049032032
4301,K3AsS4,-1.209250398
4302,Hg(AsO3)2,-1.484919505
4303,Th3As4,-1.340525598
4304,CdSnAs2,-0.133111159
4305,NiAsS,-0.549098649
4306,Li5SiAs3,-0.520212903
4307,Y4AsSe3,-1.748985646
4308,Sm2AsSe,-1.731850647
4309,CaAsAu,-0.87302194
4310,GaAsO4,-1.955139568
4311,ZnGeAs2,-0.162207866
4312,Eu(AsRu)2,-0.696934269
4313,MgCuAs,-0.35629035
4314,Ba(AsRu)2,-0.696736374
4315,CaCuAs,-0.815285055
4316,UAs2Pd,-0.65393285
4317,MnFeAs,-0.19813951
4318,KAsF6,-2.765425757
4319,FeAs,-0.199836484
4320,Sr(NiAs)2,-0.666949174
4321,Sr(MnAs)2,-0.447601111
4322,Sr(AsPd)2,-0.780029638
4323,UAsS,-1.350510991
4324,Sr(AsRu)2,-0.681392106
4325,Hg3AsO4,-1.064754582
4326,Sr(FeAs)2,-0.537364482
4327,CoAs3,-0.298632521
4328,Ca(AsO3)2,-2.247273161
4329,CdAs2,-0.083752272
4330,Ca(NiAs)2,-0.66991948
4331,Sm2As4O9,-2.482058067
4332,Te3As2,-0.015063938
4333,Sr(CuAs)2,-0.512016734
4334,LaAsO4,-2.85367581
4335,CdGeAs2,-0.091887464
4336,TlAsS2,-0.597766039
4337,CrNiAs,-0.219506389
4338,As4S5,-0.497152208
4339,TaSiAs,-0.510839867
4340,Nb3As,-0.408769792
4341,As2W2O11,-1.873132409
4342,Cu5As2,0.04955206
4343,Cu12As4S13,-0.504152406
4344,Re5(NiAs6)2,-0.130713147
4345,NbNiAs2,-0.484737874
4346,Hg19(As5Br9)2,-0.315986191
4347,Cu3AsS3,-0.451531342
4348,Na2As4O11,-1.789169138
4349,Fe4As5O13,-1.757792564
4350,CsMnAs,-0.256587809
4351,Co2As2O7,-1.591826242
4352,MoAs2O7,-1.777265131
4353,Ba(Cu3As)2,-0.26757431
4354,Hf5CoAs3,-0.865560616
4355,As2Pb3O8,-1.752657722
4356,AsSeI,-0.174420812
4357,As2Pb2O5,-1.658222601
4358,CoAsSe,-0.366805087
4359,Cr5As3,-0.022942505
4360,TiAsRh,-0.882528183
4361,U4As6Ru7,-0.564532573
4362,Er(Ni2As)2,-0.62338731
4363,MnNiAs,3.552000408
4364,Ca(AsPd)2,-0.745992918
4365,ZnSnAs2,-0.188186231
4366,Ba3As14,-0.454356196
4367,Na5SnAs3,-0.426174794
4368,Ca3(AsO4)2,-2.720770627
4369,Li19(FeAs)20,-0.435119554
4370,CuAsS,-0.397257268
4371,Sr14MnAs11,-1.088757088
4372,Mg17(As3O16)2,-2.655249123
4373,Li23(MnAs)20,-0.255547319
4374,Li47Mn5As19,-0.603019567
4375,Ca14MnAs11,-1.13238282
4376,Nb4As3,-0.582611959
4377,Cu7As6Se13,-0.060259504
4378,Ca3(SiAs2)2,-0.823954712
4379,As2P2S7,-0.614504972
4380,Hg2AsF6,-2.050080837
4381,BaNi9As5,-0.458764513
4382,K3As11,-0.272679989
4383,SbAsPd5,-0.385808737
4384,Te7As5I,-0.006168734
4385,Ca3GaAs3,-1.012752725
4386,Hg9(AsO4)4,-1.141920598
4387,Na5HfAs3,-0.589245626
4388,LaSiAs3,-0.657417361
4389,Ge3(Te3As)2,-0.052033276
4390,Cs3GaAs2,-0.482643102
4391,K2Ni12As7,-0.259047946
4392,YbCuAs2,-0.62943121
4393,Cs3As,-0.261618555
4394,Rb3As11,-0.278944475
4395,AsS,-0.44095703
4396,Fe7(AsO4)6,-1.799999345
4397,Er2Ni12As7,-0.529693406
4398,MnAsO4,-1.808336087
4399,VAsO5,-1.962884951
4400,ScAsO4,-2.702600218
4401,Ca(MnAs)2,-0.471112495
4402,CsAs3O8,-1.789917425
4403,AsXeF11,-1.565370408
4404,CoAs4F18,-2.46043622
4405,Nd2As4O9,-2.469275957
4406,AsIF12,-2.043794127
4407,LiAsS2,-0.940828791
4408,TlAsF6,-2.490217609
4409,NdAsO4,-2.796411331
4410,MnAs2F12,-2.570004506
4411,SmAsS,-1.795477548
4412,As(IF3)2,-1.93085143
4413,Eu3(AsS4)2,-1.43280124
4414,Tl3AsS3,-0.603595057
4415,FeAs4F18,-2.509461637
4416,LiAsO3,-1.963552262
4417,Ca(AsRu)2,-0.662555366
4418,FeAsS,-0.670785046
4419,Mg2As2O7,-2.299275144
4420,DyAsO4,-2.866624348
4421,Ti4As3,-0.893197203
4422,Ce(AsPd)2,-0.831074368
4423,K3Ga3As4,-0.470259491
4424,Hg4AsI5,-0.239456801
4425,Sm(NiAs)2,-0.791661996
4426,Ba(AsRh)2,-0.818086434
4427,Ce(CoAs)2,-0.726329886
4428,Ba(NiAs)2,-0.656008852
4429,Np3As4,-0.62619113
4430,As4C3,0.872999602
4431,Ge4Te7As2,-0.054787769
4432,Ca14GaAs11,-1.152275219
4433,La4As3,-1.3390001
4434,Ba(FeAs)2,-0.537306072
4435,Pr(NiAs)2,-0.798540746
4436,Mg2Co12As7,-0.265858994
4437,Sr(AsRh)2,-0.798486844
4438,Cs(AsRh)2,-0.628666058
4439,La(AsRu)2,-0.784079707
4440,Ca(CoAs)2,-0.608069924
4441,K(CoAs)2,-0.40460769
4442,La(CoAs)2,-0.759336096
4443,Sr(CrAs)2,-0.451545688
4444,Pr(AsPd)2,-0.864385352
4445,Ba(ZnAs)2,-0.644709336
4446,Sm(AsPd)2,-0.833119204
4447,Tl3AsS4,-0.628068558
4448,Eu(CoAs)2,-0.649728197
4449,Rb3As7,-0.365630853
4450,CsAsF4,-2.747913889
4451,Si3As4,-0.013027879
4452,Cs(AsRu)2,-0.405168722
4453,Pr(CoAs)2,-0.720803614
4454,Cd2GeAs4,-0.087941933
4455,Sr(CoAs)2,-0.612393192
4456,Ba(CrAs)2,-0.4642799
4457,Ba(AsPd)2,-0.777285402
4458,Nd(CoAs)2,-0.724082409
4459,La(AsPd)2,-0.922136352
4460,K4ZnAs2,-0.460650451
4461,Sr(AsPt)2,-0.783389642
4462,Cs3As7,-0.400343902
4463,Cs3BAs2,-0.367111041
4464,Cs2SiAs2,-0.468862739
4465,Cs3As11,-0.301753924
4466,Cs2Te3As,-0.632218733
4467,CeAs2Pd3,-0.791005642
4468,CuAsSe,-0.128347203
4469,Na2SnAs2,-0.354445198
4470,LaNi5As3,-0.584522996
4471,Cs5In3As4,-0.443287095
4472,Gd(NiAs)2,-0.779419579
4473,Na3AsS3,-1.140318939
4474,K3In2As3,-0.447250971
4475,CeAsS,-1.780845329
4476,NaAsS2,-0.93414655
4477,NaMgAs,-0.641297598
4478,TiAs2,-0.631607123