id,Composition,FormationEnergy
1571,Ca2AgSbO6,-2.200691519
1572,Mg2TaAgO6,-2.436328322
1573,TaZn2AgO6,-1.879665782
1574,Ca2TaAgO6,-2.702089606
1575,Mg3Ag2(GeO4)3,-1.864140577
1576,Zn3Ag2(GeO4)3,-1.401640293
1577,Ca3Ag2(GeO4)3,-2.104735727
1578,Ca3Si4(AgO7)2,-2.715118515
1579,Zn3Si4(AgO7)2,-2.178599653
1580,Mg3Si4(AgO7)2,-2.548351443
1581,BaZn(AgO2)4,-0.71387762
1582,BaMg(AgO2)4,-0.889559569
1583,Zn2AgWO6,-1.587853327
1584,Mg2AgWO6,-2.15098754
1585,Ca2AgWO6,-2.384993782
1586,Ca2AlAgO5,-2.513334562
1587,Ca2YAgO5,-2.554694303
1588,MgAgAsO5,-1.565765433
1589,CaAgAsO5,-1.780792213
1590,BaCa(AgO2)4,-0.937613344
1591,ZnAgAsO5,-1.264796403
1592,YAg(WO4)2,-2.336566524
1593,AlAg(WO4)2,-2.042778284
1594,Ba2YAg3O8,-1.770247719
1595,BaYCuAgO5,-2.059785513
1596,BaAlCuAgO5,-1.595439537
1597,Ba2AlAg3O8,-1.416086551
1598,MgAgBiO5,-1.313562998
1599,ZnAgBiO5,-0.984400631
1600,CaAgBiO5,-1.363381326
1601,CaTiAg(PO4)3,-2.638124524
1602,MgTiAg(PO4)3,-2.544787749
1603,TiZnAg(PO4)3,-2.361027173
1604,CaLaFeAgO6,-2.234058255
1605,LaMgFeAgO6,-2.101225812
1606,LaZnFeAgO6,-1.827764897
1607,PrMg(AgO3)2,-1.646519596
1608,CaPr(AgO3)2,-1.798897371
1609,PrZn(AgO3)2,-1.372592452
1610,ZnAg2P2O9,-1.642829838
1611,MgAg2P2O9,-1.874465771
1612,LaMgCrAgO6,-2.207776556
1613,Al(CoSi)2,-0.536834988
1614,Er3AlC,1.443544104
1615,AlPt3C,0.203032254
1616,Tb3AlC,1.421165942
1617,Sm2AlGe6,-0.437169336
1618,HfAl3,-0.367953751
1619,Al3V,-0.14672885
1620,AlCu3,-0.18073925
1621,Ti2Al,0.575989762
1622,LiMg2Al,0.23137154
1623,NaAlSe2,-1.019379069
1624,AlCo3,-0.180082376
1625,AlBi,0.082219965
1626,AlAu2,-0.30684788
1627,AlSi,0.272171125
1628,Yb(AlSi)2,-0.317688828
1629,Y(AlSi)2,-0.377621952
1630,PrAlGe,-0.68879899
1631,Y2AlSi2,-0.736891108
1632,Tm2AlSi2,-0.708329236
1633,Lu2AlSi2,-0.690734626
1634,Yb2AlSi2,-0.437461549
1635,Al3Ni2,-0.61238899
1636,Nd(AlGe)2,-0.441227085
1637,La3AlC,-0.187905776
1638,Ba3(AlGe)2,-0.475471491
1639,Ca3(AlGe)2,-0.524222913
1640,Sr3(AlGe)2,-0.510732349
1641,Sc2AlSi2,-0.709708884
1642,AlAu,-0.24602131
1643,ScAlAu2,-0.70057048
1644,Ca(Al2Cu)4,-0.260881796
1645,Ca(MnAl2)4,-0.265554931
1646,CeAl,-0.23124801
1647,Al3Cu2,-0.157526834
1648,La3Al,-0.191727083
1649,LiAl3,-0.081163977
1650,MnAlPt2,-0.693808425
1651,MnAlRh2,-0.68914162
1652,Al3Pd2,-0.775390254
1653,PrAl,-0.33167323
1654,AlPt,-0.94493769
1655,Al3Pt2,-0.997762176
1656,ZrAlPt2,-0.391090659
1657,Sc2Al3Ru,-0.650580455
1658,CeAl7Au3,-0.492252659
1659,PrAl7Au3,-0.518666133
1660,Lu(Al2Fe)4,-0.423005775
1661,Zr6Al2Fe,-0.305949756
1662,AlAs,-0.236658855
1663,Sc2Al,-0.34999804
1664,SmAl,-0.37012416
1665,Sm3Al,-0.17180605
1666,Tb3Al,-0.190820432
1667,Al12W,-0.074703882
1668,YAl,-0.41755775
1669,Y2Al,-0.312640227
1670,YAl3,-0.415653905
1671,ZrAl,-0.469967362
1672,CaAl9Co2,-0.381216991
1673,Al2O3,-3.442156073
1674,Y2(Al3Co)3,-0.562736736
1675,LiAl2Ir,-0.725894957
1676,NbAlRu2,-0.64468946
1677,SmAl3Pd2,-0.854551907
1678,Al2Se3,-0.841832911
1679,TiAl2,-0.425098461
1680,DyAl,-0.39781124
1681,Pr(AlZn)2,-0.438892562
1682,PrAl2,-0.485012633
1683,Pr2AlCo2,-0.224675618
1684,Al9Ir2,-0.514926525
1685,Tm2Al3Si2,-0.525364806
1686,MnAl,-0.217295486
1687,ErAl2,-0.508004212
1688,LaAl4Co,-0.520733065
1689,LuAl2,-0.483862325
1690,Al2W,-0.031753512
1691,AlCuPt2,-0.705272165
1692,PrAl3,-0.441979691
1693,YbAl3,-0.171690775
1694,HfAl2,-0.443466823
1695,LaAl,-0.412853229
1696,TbAlPd,-0.884524413
1697,NdAl3Pd2,-0.849276543
1698,Zr4Al3,-0.458513603
1699,Mg13Al14,0.061726447
1700,Hf2Al,-0.263726322
1701,Zr2Al,-0.31823074
1702,YbAlAu,-0.759313993
1703,Yb(Al5Fe)2,-0.304953347
1704,NdAl,-0.346861742
1705,NdAl4Co,-0.514028988
1706,YAlPd,-0.877831902
1707,ThAl3,-0.402981487
1708,Sc2AlC,-0.438281277
1709,Mn2AlCo,-0.270629502
1710,AlN,-1.479353351
1711,BaAlGe,-0.469195492
1712,SrAlGe,-0.470482872
1713,Nd2AlCo2,-0.254637708
1714,Dy2AlCo2,-0.393451452
1715,Zr3Al2,-0.400362449
1716,CeAl4Co,-0.491307501
1717,AlV3,-0.135050582
1718,Li3AlN2,-0.974747911
1719,RbAlF4,-3.659677608
1720,Lu3Al5O12,-3.740553171
1721,Gd3Al5O12,-3.661988084
1722,Ba(AlS2)2,-1.84941727
1723,Li12Al3Si4,-0.14625506
1724,Al7Te10,-0.433243284
1725,Zr3Al,-0.299271215
1726,AlNi,-0.658648105
1727,AlAu4,-0.210936537
1728,Al2Pb3F12,-3.269620047
1729,Al21Pd8,-0.552514503
1730,Al2Pt,-0.895201137
1731,Th(AlC)4,-0.200531493
1732,Mn3Al9Si,-0.273953105
1733,Al9Rh2,-0.499319155
1734,Al3Au8,-0.279767426
1735,TiAlAu,-0.494402706
1736,Ce2Al2Co15,-0.163798057
1737,Lu2Al3Co,-0.500289862
1738,AlCrFe2,-0.162708055
1739,Al(ReCu)2,0.382030557
1740,ScAlCu2,-0.411037755
1741,Sm(Al2Cu)4,-0.311052653
1742,Ho2Al,-0.292984819
1743,La3Al11,-0.394116327
1744,LuAl,-0.396436351
1745,Lu3Al2,-0.325307813
1746,Th2Al,-0.233613847
1747,Mn3Al10,-0.234144035
1748,NdAl3,-0.445712986
1749,Al3Ni5,-0.564055219
1750,Al4Ni3,-0.627645931
1751,Al3Os2,-0.491535038
1752,Al2Pd,-0.618726907
1753,Al3Pd5,-0.853816833
1754,ScAlPd2,-0.95236356
1755,Al6Ru,-0.331510011
1756,SrAlF5,-4.064865794
1757,Al17(Re2Si)2,-0.228742542
1758,AlAuO2,-2.236146827
1759,HoAl7Au3,-0.507367987
1760,NdAl7Au3,-0.520843316
1761,DyAl7Au3,-0.512337121
1762,YbAl7Au3,-0.474650443
1763,SmAl7Au3,-0.521230502
1764,TmAl7Au3,-0.495710887
1765,ThAl2,-0.407045012
1766,TmAl,-0.404418104
1767,Al10V,-0.090391556
1768,Y3Al2,-0.354363144
1769,Zr5Al3,-0.373010796
1770,Y(Al5Fe)2,-0.357373831
1771,Mg(AlS2)2,-1.545754427
1772,Ce(Al10Co)2,-0.159739529
1773,Ca3AlAs3,-1.067358273
1774,U(Al10V)2,-0.183812785
1775,UAl3,-0.118406811
1776,MnAl6,-0.171109403
1777,Na2Al2As3,-0.498618916
1778,CaAl4,-0.185221886
1779,Mg23Al30,-0.016318929
1780,ThAl,-0.31911875
1781,Ca(Al4Co)2,-0.420174447
1782,Al13Ru4,-0.536154
1783,K2Al2Sb3,-0.372727148
1784,Al5Rh2,-0.74455759
1785,Ca(Al5Cr)2,-0.180380998
1786,K3AlSe3,-1.195743908
1787,Ti3Al,-0.277821778
1788,Ce2Al3Ge4,-0.459722606
1789,Ca3AlSb3,-0.840358725
1790,NdAl4,-0.289867429
1791,Yb(Al4Co)2,-0.432416334
1792,NbAl3,-0.423365868
1793,Al2Re3B,0.247505358
1794,Al17(SiPd2)4,-0.466320163
1795,AlPt3,-0.68569155
1796,SmAl4,-0.268633976
1797,BaAl4,-0.235265664
1798,Ba7Al13,-0.211446399
1799,Al5Co2,-0.459160405
1800,Al21Pt8,-0.760276354
1801,Al8Cr5,-0.056786666
1802,EuAl2,-0.383987098
1803,Eu(AlGe)2,-0.425809173
1804,AlFe3,-0.194270785
1805,U(Al5Fe)2,-0.262931544
1806,Eu(AlSi)2,-0.347446069
1807,MnAlGe,-0.202546124
1808,Eu(AlGa)2,-0.407727263
1809,Sr(AlPb)2,-0.064320698
1810,CeAl2,-0.456830082
1811,Pr3Al,-0.165080345
1812,Gd(Al2Cr)4,-0.20870628
1813,ScAl3,-0.451162615
1814,U2AlCo2,-0.254305218
1815,ErAl3,-0.410149755
1816,Dy2AlGe2,-0.723849295
1817,Ce3Al,-0.154247011
1818,Mg17Al12,-0.020361657
1819,Nd3AlN,1.071910785
1820,Sc11(AlGe4)2,-0.812625409
1821,Np(Al2Fe)4,-0.313532643
1822,CeAl4,-0.289206858
1823,Al3Ir,-0.655725759
1824,LiAlCl4,-2.041780948
1825,YAl2,-0.531441405
1826,PrAl4,-0.298808728
1827,SmAl2,-0.509592147
1828,Hf5Al3,-0.291887256
1829,AlH3,-0.111726131
1830,CaAl2,-0.329806523
1831,Th2AlH4,-0.535012753
1832,HfAl,-0.404584478
1833,AlCl3,-1.949739584
1834,AlMo3,-0.228163173
1835,Ba3Al5,-0.227762524
1836,Ba4Al5,-0.220038526
1837,Al2Au,-0.416556403
1838,Al2S3,-1.45807311
1839,AlFe,-0.332047415
1840,LaAl2,-0.497849079
1841,SrAl,-0.171333667
1842,CsAlCl4,-2.208459267
1843,Al8Mo3,-0.330632643
1844,Al2Hg3Cl8,-1.504062186
1845,AlPd5I2,-0.431050174
1846,Al2PdCl8,-1.66012087
1847,Ba10Al3Ge7,-0.503482308
1848,ZrAl2,-0.538108628
1849,SrAl4,-0.223204864
1850,KAlCl4,-2.157931158
1851,Zr3AlN,-1.047256216
1852,NbAlO4,-3.241850865
1853,Ca3Al2Ge3,-0.543160743
1854,AlP2I9,-0.298705549
1855,Ca5(AlBi3)2,-0.599109403
1856,AlSbI6,-0.515055342
1857,AlPd2,-0.834384785
1858,Na7Al2Sb5,-0.389742231
1859,Ca3(AlAs2)2,-0.838283849
1860,K3Al2As3,-0.573940218
1861,NbAlCl8,-1.817660075
1862,Al2CdCl8,-1.83782557
1863,AlCo,-0.602788187
1864,Ba(AlTe2)2,-0.898447659
1865,Mn4Al11,-0.276263034
1866,Al3Te3I,-0.47611654
1867,Dy(AlCl4)3,-2.157657354
1868,Nd(AlBr4)3,-1.345012652
1869,Al7(TlS4)3,-1.354088756
1870,LaAlO3,-3.740240861
1871,KAlSb4,-0.227068607
1872,NaAlI4,-0.905831171
1873,AlTeI7,-0.386969721
1874,AlSeBr7,-0.61809768
1875,Ca3AlN3,-1.177130629
1876,Al2B2Ru3,-0.479002584
1877,Dy3AlC,-0.391131148
1878,Ho3AlC,-0.41150466
1879,Ho(AlCl4)3,-2.154001368
1880,Ca3(AlN2)2,-1.304091423
1881,Sr5Al2F16,-4.139491106
1882,La2Al2I,-0.808844468
1883,La3(AlI)2,-0.877975742
1884,Ba(AlCl4)2,-2.28218553
1885,Na2Al2Sb3,-0.291517782
1886,Li8Al3Si5,-0.029906699
1887,Ca4Al51Cr7,-0.166457038
1888,Al4Mo,-0.249471114
1889,U2Al19Co6,-0.389549303
1890,Al4W,-0.153549772
1891,Al5W,-0.160103043
1892,Al2HgSe4,-0.691767652
1893,Al13Co4,-0.385675438
1894,SmAlGe,-0.66305128
1895,BeAl2O4,-3.369411744
1896,LaAl3Pd2,-0.852330761
1897,Li2AlRh,-0.491387765
1898,UAl4Co,-0.296547336
1899,AlI3,-0.672373146
1900,KAl2Br7,-1.302249536
1901,Al45Cr7,-0.117284766
1902,Nb4AlC3,-0.513037812
1903,Ce3(Al3Ru)4,-0.652986103
1904,YAlSi,-0.631968117
1905,Sc(MnAl2)4,-0.333095476
1906,DyAl3,-0.281909095
1907,Ho(Al2Fe)4,-0.426032588
1908,Er3Al2,-0.326375941
1909,AlFe2,-0.097770967
1910,MnAlFe2,-0.18635056
1911,TiAlFe2,-0.451747487
1912,AlSiTe3,-0.267819644
1913,Ce(Al5Ru)2,-0.516566407
1914,Th(Al2Cr)4,-0.206502675
1915,Al2CdSe4,-0.814303605
1916,Ce(AlZn)2,-0.371342122
1917,Ce(AlGa)2,-0.424655682
1918,ScAl,-0.451450865
1919,CeAlRh,-0.856248454
1920,AlO3,-1.607187687
1921,MnAlCo2,-0.35502533
1922,Er(Al2Fe)4,-0.426049369
1923,AlRh,-1.09471293
1924,Al2CdO4,-2.842796846
1925,Ca(AlSe2)2,-1.204663445
1926,Sc(Al2Fe)4,-0.422064509
1927,Sr(AlTe2)2,-0.835810344
1928,ZrAlCu2,-0.352175777
1929,Al5CuSe8,-0.761791947
1930,AlTlF4,-3.301149641
1931,Mg3(Al9Cr)2,-0.103036243
1932,Al(FeB)2,-0.394067439
1933,Ca(AlGe)2,-0.392048422
1934,Zr2AlC,-0.645417731
1935,HoAl2,-0.513952418
1936,Ce(Al10Cr)2,-0.170449662
1937,ZrAl3,-0.484540514
1938,NdAl2,-0.496014318
1939,Yb(AlGe)2,-0.434356338
1940,Sc3AlC,-0.595217302
1941,BeAlB,-0.055504459
1942,Yb(Al2Mo)2,-0.274683317
1943,Y3AlC,-0.420967956
1944,UAl3Pd2,-0.565637916
1945,LiAlTe2,-0.713474862
1946,Mn3AlC,-0.187095847
1947,Y(Al2Fe)4,-0.426616545
1948,Zr2AlN,-1.171137516
1949,Th(Al2Fe)4,-0.401849541
1950,UAl2,-0.155374027
1951,AlVCo2,-0.417935582
1952,Nd7Al7Co6,-0.382417092
1953,UAlRh,-0.560477708
1954,AlInS3,-1.225572972
1955,AlTl2F5,-2.98839434
1956,Al3(Co10B3)2,-0.282604369
1957,Al13(CrSi)4,-0.181473077
1958,Dy(Al2Fe)4,-0.425670276
1959,Zr5AlSn3,-0.598940088
1960,NbAlCo2,-0.410035105
1961,AlSiP3,-0.312202248
1962,AlAsO4,-2.454513348
1963,Al23B50,-0.057233722
1964,Al6SnTe10,-0.432461967
1965,GdAl22O34,-3.407637629
1966,Ba14AlSb11,-1.028572709
1967,LaAlSi2,-0.521861283
1968,Al2Te2Cl7,-1.566750558
1969,TiAlCo2,-0.613062212
1970,Al2CoCl8,-1.678195211
1971,AlGaCl4,-1.686224024
1972,K3AlAs2,-0.517591902
1973,Al3Pb5F19,-3.236717921
1974,Ti(AlBr4)2,-1.111333643
1975,Al3(BRu2)2,-0.595185369
1976,Mg(AlCl4)2,-2.049111378
1977,AlRu,-0.693583398
1978,TiAl3,-0.395764917
1979,MnAlAu2,-0.24316504
1980,Al12Mo,-0.112517753
1981,U(Al2Cr)4,-0.11931326
1982,AlPS4,-0.485618473
1983,Al(IO3)3,-1.316557637
1984,MnAlF5,-3.496491585
1985,Al2BiS4,-1.264640603
1986,BeAl6O10,-3.411104458
1987,Dy6Ti4Al43,-0.335669217
1988,LuAlSi,-0.586754817
1989,CeAl3,-0.409400754
1990,Nd(AlGa)2,-0.436071743
1991,Eu(Al10V)2,-0.193535912
1992,Ce2(Al5Ru)3,-0.528011613
1993,Ba21Al40,-0.23301119
1994,AlTlCl4,-1.822909041
1995,Zr2Al3C4,-0.455240135
1996,Er2Al3Co,-0.490475947
1997,Pr(AlBr4)3,-1.347280957
1998,AlTlBr4,-1.114016969
1999,Al45V7,-0.152134486
2000,ZrAlPt,-1.047392788
2001,Al13Os4,-0.448611543
2002,Th(Al5Fe)2,-0.350003968
2003,Mg41Al67,0.034446678
2004,NdAlPt,-1.060693482
2005,Al22Mo5,-0.254050159
2006,U(AlC)3,-0.178290385
2007,Nd2Al,0.37028334
2008,Sc(AlC)3,-0.346761186
2009,Li9Al4,-0.155992078
2010,AlPI8,-0.342699914
2011,Al2VCl8,-1.852827634
2012,Sm2AlGe3,-0.666225619
2013,SrAlH5,-0.419214109
2014,Yb5(AlSb3)2,-0.777726332
2015,Al5Mo,-0.237961253
2016,La16Al13,-0.365254154
2017,TmAlRh,-0.951893604
2018,Ba5Al5Pb,-0.330275382
2019,U3(Al3Ru)4,-0.45158729
2020,La(AlBr4)3,-1.374300748
2021,Ba3Al3Ga2,-0.342001693
2022,NpAl2Pd5,-0.685822919
2023,Zr4(AlC2)3,-0.569758111
2024,YbAlPd,-0.818043446
2025,La4Al5Br2,-0.880366038
2026,Gd2(Al3Ir)3,-0.854174443
2027,La10Al5Br4,-0.813600571
2028,Sm(AlCl4)2,-2.032049616
2029,Sm(AlZn)2,-0.425333094
2030,La(AlGa)2,-0.488965122
2031,UAl2Pd5,-0.705005058
2032,HoAlB14,-0.163112485
2033,Al(BH4)3,-0.195932068
2034,Nd(Al4Co)2,-0.458156974
2035,Sr(AlCl4)2,-2.255469344
2036,Al6Fe,-0.195704471
2037,PrAlPt,-1.036619698
2038,Zr3Al3C5,-0.180458682
2039,Ba7Al10,-0.230496798
2040,Ba(AlGe)2,-0.394342062
2041,Ca10(Al2Ge3)3,-0.541748899
2042,Al17Mo4,-0.257258385
2043,Ba5Al5Sn,-0.345243213
2044,Ca(AlCl4)2,-2.211349021
2045,TiAlPt,-0.918570297
2046,Zr5Al4,-0.416088414
2047,Y(AlCl4)3,-2.15494022
2048,Ti(AlCl4)2,-1.901970612
2049,CaAlPd,-0.741954379
2050,Pr7Al7Co6,-0.359507257
2051,AlTeCl7,-1.483030085
2052,Sr3(AlGe2)2,-0.5034933
2053,Al3Mo,-0.315931179
2054,AlInI4,-0.645332388
2055,Nd3AlC,-0.186473967
2056,Zr2Al3C5,-0.061152709
2057,Sr14Al8Ge3,-0.33328146
2058,Zr2Al4C5,-0.336194859
2059,TmAlSi,-0.605375112
2060,Dy3Al2,-0.324831791
2061,Yb(AlGa)2,-0.374533312
2062,Tm3AlC,1.455864211
2063,AlVFe2,-0.42662789
2064,Gd3AlC,-0.326588855
2065,Cs3AlAs2,-0.506738511
2066,EuAl4,-0.268841117
2067,Pr2Al19Co6,-0.482118261
2068,CaAlH5,-0.381952419
2069,Yb7Al5Ge8,-0.564719675
2070,LiAlGe,-0.294121828
2071,Al2CdS4,-1.351214287
2072,Al4Cu9,-0.210526266
2073,CeAlRu,-0.589758408
2074,U2Al20Fe,-0.083951403
2075,AlPd5,-0.464549698
2076,Al2CrCl8,-1.79330658
2077,AlTlI4,-0.721776901
2078,Cs3AlP2,-0.463047831
2079,Al3Ni,-0.399152879
2080,TaTiAl,0.812672534
2081,ZrAlW,0.721579447
2082,AlB2Pb,1.761140004
2083,AlInB,1.045173804
2084,Gd2AlCo2,-0.350157276
2085,AlCr3B4,-0.450205292
2086,AlInCl4,-1.741804167
2087,Ta2Al,-0.069884781
2088,Nd2(Al3Co)3,-0.51664512
2089,La6Mg22Al,-0.080528114
2090,U2(Al3Co)3,-0.326224068
2091,Sr11Al4In3,-0.261339046
2092,Gd(Al10Cr)2,-0.143287856
2093,BaAlH5,-0.432523419
2094,Sr(AlH)2,-0.356264155
2095,Al3Bi5Br12,-0.811977205
2096,Al3Bi5I12,-0.479516182
2097,La8Al4I7,-0.983861003
2098,AlPd,-0.914216612
2099,AlBiCl6,-1.69899313
2100,Al(ICl2)3,-1.066349846
2101,Al22CdO34,-3.344654154
2102,SmAlF5,-3.765134519
2103,Al2PbSe4,-0.795646853
2104,Al2CrS4,-1.244567461
2105,Ca(Al3Te5)2,-0.380203193
2106,Ba7(Al3Te8)2,-0.873843986
2107,Gd6Ta4Al43,-0.254933766
2108,Mg3(MnAl9)2,-0.103039188
2109,Sr2AlH7,-0.504992257
2110,Ba2AlH7,-0.511858873
2111,Th8Al4H11,-0.501167556
2112,LiAlSe2,-1.091218811
2113,Dy(AlSi)2,-0.37395523
2114,Al2Os,-0.563703582
2115,Ba3(AlSn)2,-0.51708169
2116,NaAlGe,-0.19110867
2117,AlTeO4,-2.215054308
2118,AlInO3,-2.699052075
2119,LuAlO3,-3.737694125
2120,TbAl2,-0.521178661
2121,Al2HgO4,-2.558102836
2122,DyAlO3,-3.765850344
2123,YbAlO3,-3.216133291
2124,LaAl12O19,-3.400648817
2125,Al11InO17,-3.309592719
2126,RbAl11O17,-3.39258768
2127,La2Al4O9,-3.562704319
2128,Lu3AlO6,-3.946916429
2129,Dy3Al5O12,-3.715979815
2130,AlSn,0.199301785
2131,Lu4Al2O9,-3.889705691
2132,La4Al2O9,-3.809606331
2133,Mn2AlB2,-0.468846227
2134,Al2HgS4,-1.202492377
2135,Al2ZnSe4,-0.831183991
2136,Al2ZnTe4,-0.460970861
2137,Al2CdTe4,-0.464692056
2138,Al2HgTe4,-0.380805287
2139,Nb3Al,-0.158613772
2140,AlCuSe2,-0.627423583
2141,AlCuTe2,-0.338672696
2142,Al2O,-0.148250707
2143,AlO,-1.563415421
2144,DyAl2,-0.519146755
2145,BaAl4S7,-1.691376015
2146,Sr(AlSe2)2,-1.269943399
2147,Ca5(AlSb3)2,-0.776894735
2148,Hf2Al3,-0.424163387
2149,Hf3Al2,-0.332163095
2150,Na3AlAs2,-0.517547018
2151,TmAl2,-0.499926203
2152,Ti2AlRe,-0.43134229
2153,Li2PrAl,-0.185302292
2154,LiDy2Al,-0.2032383
2155,Er2MgAl,-0.261981506
2156,Pm2LiAl,-0.198150636
2157,AlFeRh2,-0.60120711
2158,LiAlRh2,-0.660738995
2159,TaAlOs2,-0.554428798
2160,LiEr2Al,-0.198451268
2161,Sc2AlTc,-0.369634801
2162,Sc2AlRu,-0.532492044
2163,LiY2Al,-0.234110232
2164,Al2IrRh,-1.018901352
2165,AlZnIr2,-0.582547305
2166,Pr(Al2Cu)4,-0.305353782
2167,AlSiRu2,-0.712974475
2168,PmAlAu2,-0.658824372
2169,PmLi2Al,-0.185135499
2170,LuAlB4,-0.498434492
2171,Nd2MgAl,-0.255114781
2172,Ho2AlZn,-0.37862839
2173,Yb2AlGe3,-0.562936684
2174,PaAlAu2,-0.426963495
2175,ZrAlAu2,-0.53675716
2176,MnAlIr2,-0.574049363
2177,MnAlOs2,-0.245710883
2178,Mn2AlW,-0.210130593
2179,Gd(AlSi)2,-0.384546315
2180,PaAlTc2,-0.361251793
2181,PaAlRu2,-0.570316283
2182,MgAlPd2,-0.836679661
2183,Dy2AlZn,-0.380175367
2184,Lu2MgAl,-0.239125906
2185,Tm2AlOs,-0.330416419
2186,Mg17Al11Pd,-0.086115668
2187,Tm2MgAl,-0.253218884
2188,TmAlCu,-0.466929693
2189,TiAlPd2,-0.762739337
2190,TiMn2Al,-0.330519042
2191,Y2AlZn,-0.401937103
2192,Y2MgAl,-0.299681621
2193,Li2CeAl,-0.039731675
2194,Tm(Al2Cu)4,-0.292583334
2195,Yb(Mg4Al3)4,-0.057084571
2196,MgAlIr2,-0.684970129
2197,BeAlIr2,-0.758360175
2198,Ce5Al2Ru3,-0.444976415
2199,Al2RuIr,-0.873023556
2200,AlVRu2,-0.64394594
2201,LiNd2Al,-0.191126633
2202,Al2FeIr,-0.660498952
2203,AlZnRh2,-0.792449335
2204,Zr6Al16Ru7,-0.640161772
2205,TiAlRh2,-0.988787274
2206,Li2NdAl,-0.187757574
2207,AlCuPd2,-0.618658475
2208,TaMn2Al,-0.298380618
2209,LiAlCu2,-0.222397153
2210,AlCuAu2,-0.255919775
2211,Al2CoIr,-0.776302491
2212,Al2RuRh,-0.927859981
2213,AlTlSe2,-0.757602848
2214,LiTm2Al,-0.20142072
2215,Sm2MgAl,-0.257813154
2216,ScAlRh2,-1.098416918
2217,U2Al3C4,-0.170106929
2218,Y2Al3Si2,-0.55208281
2219,Al2Te5,-0.326915987
2220,AlB2,-0.043502668
2221,Mg(AlC)2,-0.063588662
2222,LaAl3,-0.446806899
2223,AlVPt,-0.144753073
2224,TaAlPt,-0.021494433
2225,NbAlPt,-0.058115453
2226,Na3AlTe3,-0.80528965
2227,Na3AlSe3,-1.0912953
2228,YbAl2,-0.346377325
2229,Ca(AlGa)2,-0.338164346
2230,Rb6AlSb3,-0.399634546
2231,TbAlCu2,-0.348710039
2232,Tb(AlC)3,-0.277827245
2233,Tm(Al2Cr)4,-0.212635689
2234,YErAl2,-0.400366
2235,Sm2AlZn,-0.349470147
2236,Sc2AlIr,-0.729384
2237,Sc2AlCd,-0.362791827
2238,La(Mg4Al3)4,-0.071360778
2239,HoErAl2,-0.390669467
2240,LiLu2Al,-0.195776015
2241,Mn3Al,-0.056040654
2242,ScAlPt2,-1.122696918
2243,Lu3Al,-0.194902528
2244,Gd(Al2Cu)4,-0.306820587
2245,Lu2AlRu,-0.431533101
2246,Ho(AlC)3,-0.303191126
2247,LiHo2Al,-0.209043373
2248,Li(Mg4Al3)4,-0.029396586
2249,Na3Al,0.173377641
2250,Al2Ge2O7,-2.71878781
2251,Nd(Mg4Al3)4,-0.066442345
2252,Rb(Mg4Al3)4,0.02882468
2253,RbAlO3,-1.944121657
2254,Li3Al,-0.075035105
2255,NaAl3,0.191792586
2256,Pr(Al2Fe)4,-0.391976459
2257,Nd3Al,-0.167093594
2258,YbAl2Cu,-0.336580829
2259,ZrAlRh2,-0.949588063
2260,ZrAlRu2,-0.671051665
2261,MgSc2Al,-0.286579101
2262,SmYAl2,-0.393358358
2263,Sm2AlCd,-0.344961005
2264,Sc6Al16Ir7,-0.861993057
2265,Ti6Al16Pt7,-0.808534482
2266,Tm(AlC)3,-0.325451011
2267,YEr4Al15,-0.416718929
2268,YHoAl2,-0.403153147
2269,Tm6Al7Cu16,-0.381434065
2270,YTmAl2,-0.396246216
2271,Th(Mg4Al3)4,-0.050032096
2272,HoAlAu2,-0.713888123
2273,Tm3Al2,-0.322770974
2274,PmYAl2,-0.390966207
2275,Lu(Mg4Al3)4,-0.06533005
2276,Al3Zn,0.043053828
2277,Dy(Al2Cu)4,-0.305717681
2278,Dy(Al2Cr)4,-0.214187483
2279,AlTlS2,-1.224076415
2280,Al3Cu,-0.092700418
2281,AlCr2C,-0.179031788
2282,Nb3AlC2,-0.51788065
2283,Ti2MnAl,-0.247053406
2284,Ti2AlV,-0.104088261
2285,Ti2AlFe,-0.230812498
2286,Ti2AlZn,-0.008339963
2287,Ti2AlCr,-0.134334073
2288,Al2(CuO2)3,-1.763651365
2289,AlMoO3,-1.482576573
2290,Ti2AlO4,-3.184457702
2291,Al2Fe3F15,-3.034125966
2292,Al(FeO2)2,-2.353807869
2293,Al(CoO2)2,-2.050204349
2294,AlCuO2,-2.428428383
2295,AlSnO3,-1.371262849
2296,AlNiO3,-0.807388413
2297,Al(CuO2)3,-0.855492487
2298,AlVO3,-1.777056717
2299,AlFeO3,-1.273790909
2300,AlCoO3,-1.089310706
2301,Al13(CuSe8)3,-0.610033419
2302,Mn2AlO4,-2.448594062
2303,AlV2O4,-2.715681212
2304,Al(NiO2)2,-1.760561302
2305,AlCr2O4,-2.513737962
2306,TiAlO3,-2.387519192
2307,Al10(Cu2O7)3,-2.305888787
2308,Al(BiO3)3,-1.219126172
2309,Al2(BiO3)3,-1.872969844
2310,Al2(CuSe2)3,-0.398001289
2311,Al14(CuSe8)3,-0.685585239
2312,Al(CuSe2)3,-0.098094094
2313,Al5(CuO4)3,-2.314288129
2314,Al5(NiO4)3,-2.353976196
2315,Al5(FeO4)3,-2.78190874
2316,Al5(BiSe4)3,-0.524158727
2317,Al10(Bi2O9)3,-2.439354737
2318,Al4(BiSe4)3,-0.418507745
2319,Mn3Al2F15,-3.086208167
2320,Al4(NiO4)3,-1.965775234
2321,Al4(FeO4)3,-2.387207178
2322,Mn3AlF15,-2.509887856
2323,Al5(CoO4)3,-2.577648092
2324,AlCuF5,-2.944178614
2325,Ti2Al2O7,-2.961368167
2326,AlBiSe4,-0.258814512
2327,TiAlF5,-3.488886474
2328,AlSnF5,-3.289108774
2329,AlBiO3,-1.705834068
2330,AlVF5,-3.488035617
2331,Mn2Al2O7,-2.264137637