id,Composition,FormationEnergy
15948,H24C8S(NO2)2,-0.536049402
15949,SbHCSO3F8,-2.115220333
15950,Na2RuH4C5(N2O)3,-0.543490001
15951,NiH16C4S4(N4Cl)2,-0.540930343
15952,CaRe2H6C(NO5)2,-1.736003249
15953,K2H4PtC6S6(N3O)2,-0.512841421
15954,KNaH6PtC4N4O3,-0.774057123
15955,CuH20C2S3(NO)8,-0.835704086
15956,CuH8C4N8(ClO)2,-0.255456458
15957,ZnH12C2S2(N3O4)2,-1.116950679
15958,NaPH5C2SN3O4,-1.183061657
15959,NaPH3C2N3O4,-0.961820629
15960,CdH4CN2Cl2O,-0.992092003
15961,K3HRhC5N5O,-0.499239234
15962,ZnH8C2I2(N2O)2,-0.699912468
15963,NpH16C4N8ClO6,-1.046277523
15964,K2ZrCdH16(CO3)8,-1.664661971
15965,UH12C4SN2O9,-1.139698404
15966,K4H4PtC6S2(NO6)2,-1.140961196
15967,P3H18OsC6(SO)6,-0.733333615
15968,P3RuH18C6(SO)6,-0.75254035
15969,RuH12C4S2N2Cl2O5,-0.653620038
15970,CuH4C2NCl3O,-0.32410831
15971,SnH24C6N2(OF3)2,-0.971763909
15972,MnGe4H24C8(S5N)2,-0.454285644
15973,PH12C2N6O3F,-1.014688213
15974,Sb3P2H6C2NO9,-1.146681354
15975,K2H2C3S2O7F6,-1.84263811
15976,CdH16C4S4(N4Cl)2,-0.580907956
15977,ZnPH7C2N4O5,-1.204645188
15978,Cr2C13SN3(O2F)5,-0.837675328
15979,Sb3WC6O6F17,-1.958307405
15980,Mn2PC11SO8F9,-1.191522138
15981,Mo2C3S2(Cl5O)2,-0.994721944
15982,Ni2P4C11S2(OF8)3,-1.431757833
15983,Fe2P3C8N3(ClO2)4,-0.733283613
15984,CuH7C3SN3O4,-0.539801831
15985,MoH17C5(NO)4,-0.609632585
15986,RuH18C6S3N3ClO3,-0.473553989
15987,CuH9CSN4Cl3O,-0.380453194
15988,ZnH16C4S4(N5O3)2,-0.399228343
15989,H4CS(NO)2,-0.846064288
15990,ZnH10C4N6(ClO2)2,-0.928970825
15991,H8C2SeS2(N2Cl)2,-0.569196551
15992,NaCa3UH16C3SO25F,-1.987369134
15993,ZnP2H15C5NO9,-1.157134975
15994,SrH6C2S2N2O3,-1.103384789
15995,HC2S2N(O2F3)2,-1.607512404
15996,ThH20C4S2N8O15,-1.243484148
15997,Re6H12Pb3C2S2(N2O13)2,-1.577041268
15998,SrMgUH24C3O23,-1.791724395
15999,H5CSN2ClO4,-0.60215641
16000,GdH18C3S3(O2F)9,-1.761200537
16001,MgH24C6N12(ClO6)2,-0.866330854
16002,ReH22C4S4N8Cl8O3,-0.797729641
16003,H8C2S3(NO3)2,-0.925600676
16004,MgH18C4SN8O9,-1.10015558
16005,ZnP2H11C2NO8,-1.396199918
16006,Na2CuH20C12(N2O3)6,-1.109890971
16007,H10C5S2N2(O2F3)2,-1.054294283
16008,KSn2H36C12(Se2N)3,-0.304418205
16009,Ti2P4H9C2NO16,-2.075418508
16010,ZrH11C4NOF5,-1.055926291
16011,Zn3P3H10C2NO13,-1.485215685
16012,Na2Sc2P4H12C4O13,-1.7151719
16013,YH8C2S2NO9,-1.468320031
16014,NaH3C4S4(OF)12,-1.864577409
16015,SbTe6H12C4N(OF5)6,-1.741105566
16016,RuH2C8S3N(ClO)3,0.488499344
16017,KCd6H4C12ClO26,-1.376570562
16018,NaH18C9I(NO)3,-0.076714564
16019,K7H12Pt4C16(N8O3)2,-0.448725065
16020,Re2H6PbC(NO5)2,-1.539629725
16021,K2H6PtC4N4O3,-0.784205381
16022,H4CSN2Cl,-0.603375685
16023,KCd2H8C10N15O4,-0.305446523
16024,Ca2Y2Si4H2CO16,-3.16110978
16025,SiH18C4N8(O2F3)2,-1.271425482
16026,Na2H6PtC4N4O3,-0.762144591
16027,ReH12C2S2N4Cl5O3,-0.893478744
16028,CaMgUH24C3O23,-1.787067266
16029,Li2CuP6H20C2(N3O11)2,-1.63324402
16030,Ga3P3H6C2NO13,-1.726948602
16031,H4CS(NO)3,-0.70875773
16032,CuH4C2S2N2Cl,-0.467371642
16033,NaH4CSNO2,-1.06656617
16034,CuH18C4N10(ClO)2,-0.623189987
16035,K2H2C2S2N2O,-0.835509676
16036,Li2H12C3SN6O7,-1.159986871
16037,KPH5C2SN3O4,-1.212887234
16038,UH12C2S2N6O13,-1.077498452
16039,ZnH16C6S2(N2Cl)2,-0.485584312
16040,SiH10C2N4(OF3)2,-1.568829948
16041,FeH16C4S4(N4Cl)2,-0.545242338
16042,H2C2S3N2(OF)6,-1.492205064
16043,CdRe2H16C4S4(NO)8,-0.913241263
16044,CdRe2H8C2(N2O5)2,-1.32890556
16045,ZnH12C6S2(N5O)2,-0.504674445
16046,H7CSN3O4,-1.079099059
16047,KCaCrH10C6O17,-1.702294151
16048,MnH18C4N8(ClO)4,-0.839711023
16049,V3P2H12C3N2O15,-1.367024103
16050,Rb2FeH2C5(N3O)2,-0.27012038
16051,K4H4WC8(N4O)2,-0.423024264
16052,CaH16C4N8(ClO2)2,-0.671286278
16053,Sr2Re4H16C3(N2O7)3,-1.605476902
16054,FeGe4H24C8(S5N)2,-0.424880805
16055,Zn4P3H10C2NO13,-1.657359971
16056,RuH24C7S3NCl3O4,-0.58888033
16057,Sn2H10C4N2O9F2,-1.393204819
16058,ZrH27C8N2Cl5O2,-0.700923396
16059,H12OsC4N(OF)3,-0.82152112
16060,SiPH18C6INCl,-0.371435213
16061,Na5P3H48C4N(O9F)3,-1.469636834
16062,ZrH16C5N2O3F4,-1.155868153
16063,CrP3H18C6(SO)6,-0.79023836
16064,MnP3H10C3NO9,-1.394968732
16065,FeH12C2S2(O2F)6,-1.656448548
16066,CoH6C2S2N2O3,-0.809777
16067,NiH16C2S3N6O7,-0.879924697
16068,FeH2C4N4Cl6O,0.487189584
16069,VPH6C2N3O7,-1.405081617
16070,KV2H2C8N2(OF)5,-0.478502552
16071,MnH9CNCl3O2,-0.97060083
16072,MnP2H36C12N6(ClO)2,-0.47754735
16073,MnH16C4N(OF2)2,-1.006618602
16074,MnH12C2NCl3O2,-0.935928801
16075,Fe2H13C6NCl2O11,-1.201363989
16076,VH12C2S2(O2F)6,-1.678478672
16077,Mo3H8C4SN2Cl6O7,-1.167275377
16078,VH20C2S2N6O13,-1.242918369
16079,K2Mo2H12C4N(OF3)3,-1.40727313
16080,CoNiH12C4(N2O3)2,-0.693981437
16081,Na2NiH6C4N4O3,-0.62652918
16082,CoH18C4N8(ClO)4,-0.868559236
16083,V2PH10C2N2O8F,-1.444242567
16084,ZnCrH28C6N12Cl5O8,-0.960895231
16085,CrCo3H24C6(N10O11)3,-0.439068085
16086,NiH24C2S2(N3O7)2,-1.184541779
16087,NiH48C16S8(NO7)2,-0.55203967
16088,FeP2H24C8S4NClO4,-0.620546335
16089,SiMo12H24C6N3O40,-1.447587048
16090,Mo2H5C5N3O14,-0.689648281
16091,Ni5SbH17C15NO9,-0.303292485
16092,PuCoH24C4N6O13,-1.192041568
16093,Mn3Mo2H34C22N16O5,-0.308083482
16094,VH8C2N2O6F,-1.370041029
16095,CoMo8H36C8(NO16)2,-1.200279062
16096,VH24C8S2N2O9,-0.810415986
16097,DyFeH8C6(N3O2)2,-0.674106503
16098,NiH44C12N8(ClO5)2,-0.686998328
16099,FeP3H18C6(SO)6,-0.751852342
16100,CoP2H24C8S4NClO4,-0.603723906
16101,CaSb2,-0.615427047
16102,K3H8RhC4(ClO6)2,-1.584608998
16103,ZnP2H14C2(NO)6,-1.080137981
16104,Na5LiCo2P2(CO7)2,-2.259031127
16105,NaLiMnPCO7,-2.349241736
16106,K2LiMnPCO7,-2.362626862
16107,NaLi2CoPCO7,-2.295023329
16108,KLiMnPCO7,-2.356490345
16109,NaLi2NiPCO7,-2.231698235
16110,Na2LiMnPCO7,-2.390716141
16111,KLi2MnPCO7,-2.371917053
16112,Na2Li4Mn2C4SO16,-2.141072142
16113,Na2Li4Ni2C4SO16,-1.975504518
16114,Na2Li4Co2C4SO16,-2.027753196
16115,ZnPH5C2N4O3,-0.962501604
16116,Rb2NaZn2H5(C2O7)2,-1.837032474
16117,H16PdC4S4(N4Cl)2,-0.566265117
16118,K2UH6C2SO13,-2.044119343
16119,K2NaZn2H5(C2O7)2,-1.838241586
16120,SiH18C2N8(OF3)2,-1.190706312
16121,Li12Mn3FeP4(CO7)4,-2.416339193
16122,Li6MnVP2(CO7)2,-2.433723489
16123,Li6VFeP2(CO7)2,-2.410309077
16124,Li6MnFeP2(CO7)2,-2.402734648
16125,Li6CrFeP2(CO7)2,-2.38979374
16126,Li6MnCrP2(CO7)2,-2.411940009
16127,Li6VCrP2(CO7)2,-2.415561666
16128,Li6FeNiP2(CO7)2,-2.317063266
16129,Li6CrNiP2(CO7)2,-2.326470503
16130,Li6CoNiP2(CO7)2,-2.284510014
16131,Li6MnNiP2(CO7)2,-2.340745356
16132,Li6VCoP2(CO7)2,-2.375277468
16133,MnH8C2S2(NO2)2,-0.984264843
16134,Li6FeCoP2(CO7)2,-2.27197731
16135,Li6MnCoP2(CO7)2,-2.368070874
16136,Li6CrCoP2(CO7)2,-2.355027584
16137,Li12Mn3VP4(CO7)4,-2.430810302
16138,Li12V3FeP4(CO7)4,-2.423590854
16139,Li12MnFe3P4(CO7)4,-2.393183204
16140,Li12MnNi3P4(CO7)4,-2.299369286
16141,Li12V3CrP4(CO7)4,-2.427747259
16142,Li12VFe3P4(CO7)4,-2.395999233
16143,Li12FeNi3P4(CO7)4,-2.287360099
16144,Li12VNi3P4(CO7)4,-2.302538818
16145,Li12Mn3CrP4(CO7)4,-2.42030454
16146,Li12VCr3P4(CO7)4,-2.405648034
16147,Li12Cr3FeP4(CO7)4,-2.394465244
16148,Li12CrFe3P4(CO7)4,-2.38509552
16149,Li12MnCo3P4(CO7)4,-2.34345119
16150,Li12Co3NiP4(CO7)4,-2.301322981
16151,Na6Ca3MnC6(O9F)2,-2.443705373
16152,Li12V3CoP4(CO7)4,-2.407834654
16153,Li12VCo3P4(CO7)4,-2.346289379
16154,NiH36C12S6(I2O3)2,-0.48693592
16155,Li6Ca3MnC6(O9F)2,-2.468692154
16156,Li12Fe3NiP4(CO7)4,-2.350169481
16157,Li12CoNi3P4(CO7)4,-2.271171598
16158,Li12CrCo3P4(CO7)4,-2.335269957
16159,Li2CuH14C4(N3O4)2,-1.031741423
16160,Na5LiFe2P2(CO7)2,-2.326124972
16161,Na5LiMn2P2(CO7)2,-2.387515551
16162,Na5LiNi2P2(CO7)2,-2.202149074
16163,Na3Li3Fe2P2(CO7)2,-2.347800098
16164,NaLi2FePCO7,-2.361162497
16165,Na3Li3Mn2P2(CO7)2,-2.394734001
16166,NaLi2MnPCO7,-2.414384974
16167,NaLi5Fe2P2(CO7)2,-2.369490925
16168,NaLi5Mn2P2(CO7)2,-2.411160479
16169,Na2LiFePCO7,-2.334514531
16170,SnSb2H24C8(SCl)2,-0.325708011
16171,H48PtW6C8(NO)24,-0.974345066
16172,CaNi5,-0.113624287
16173,K2H2OsCCl5O2,-1.493298542
16174,ZnH12C3S4(N3O2)2,-0.82080582
16175,CuH12C3SN6O7,-0.967599808
16176,Cu2H26C6S7N12O5,-0.682553155
16177,Na3LiCuPCO7,-2.133830211
16178,Na2LiCuPCO7,-2.160230359
16179,Na4Ni2P(CO4)4,-1.797043354
16180,Na4Fe2P(CO4)4,-2.012080838
16181,Na6Fe2P(CO4)4,-2.09254647
16182,Na6Ni2P(CO4)4,-1.978274404
16183,Na4Mn2P(CO4)4,-2.026586095
16184,Ca5Si3,-0.488494211
16185,CaPd2,-0.71112863
16186,CaPt2,-0.942024913
16187,TeH14C3S3(N3F2)2,-0.817856813
16188,ZnP2H15C4NO8,-1.165277045
16189,SiH21C6N2OF5,-0.931341906
16190,CaHg3,-0.389831371
16191,MoH18C5(NO)4,-0.670735312
16192,Li12MnV3P4(CO7)4,-2.436102863
16193,CaP3,-0.630718282
16194,Rb3Ca,0.175795687
16195,RbCa3,0.214707552
16196,Li3Ca,0.046995697
16197,LiCa3,0.067915525
16198,H3PbCI3NF3,-1.020833239
16199,Na3Ca,0.081420331
16200,NaH6CN2ClO2,-1.127696798
16201,CaNd3,0.085543108
16202,CsCa3,0.244808682
16203,Ca3Pt2,-0.863618817
16204,Ca2Sb,-0.888084883
16205,Ca(MoO2)2,-2.03412624
16206,Ca(NiO2)2,-1.390093562
16207,Ca(CoO2)2,-1.862097639
16208,CaTi4O9,-3.451910792
16209,CaCr2O4,-2.57946592
16210,CaV2O4,-2.7626117
16211,CaMn2O4,-2.39523515
16212,CaSb4O9,-1.735048427
16213,Ca(FeO2)2,-2.289475982
16214,CaCo4O9,-1.310376258
16215,CaW4O9,-1.924333448
16216,CaSn4O9,-2.17207405
16217,CaCr4O9,-2.081638984
16218,CaMn4O9,-1.752732514
16219,CaNi4O9,-0.678766766
16220,CaMo4O9,-1.994817118
16221,CaFe4O9,-1.589914394
16222,Ca(SbO2)4,-1.926064798
16223,Ca(FeS2)4,-0.974497746
16224,Ca2VN3,-0.671867616
16225,CaMoF6,-3.402995185
16226,Ca(CoS2)2,-1.045354263
16227,Ca2CoN2,-0.616220232
16228,Ca(CrS2)2,-1.379438367
16229,Ca(FeS2)2,-0.983702112
16230,CaCo2S5,-0.903184268
16231,Ca5(VN3)2,-1.020040386
16232,Ca3(CuO3)2,-2.167367743
16233,CaCoO2,-2.205794957
16234,CaTiO3,-3.573377579
16235,Ca2FeN2,-0.865947022
16236,CaMnO3,-2.509758096
16237,Ca2Mn2O5,-2.590045182
16238,Ca3Mn2O7,-2.657375567
16239,CaFeF5,-3.419883217
16240,Ca(TiS2)4,-1.894209298
16241,Ca3(FeN2)2,-0.74533783
16242,CaTi2F10,-3.853063103
16243,Ca(CuO2)2,-1.551375491
16244,CaV2O6,-2.583779932
16245,CaCr2F10,-3.030084292
16246,CaCrO3,-2.621887806
16247,CaMnF5,-3.428779723
16248,CaMnO2,-2.524586068
16249,CaMn3O6,-2.287679844
16250,CaNiO2,-1.884613262
16251,Ca(FeO2)4,-1.865777348
16252,CaMn2F10,-2.866517293
16253,Ca3(CoO3)2,-2.144225869
16254,Ca(MnS2)2,-1.215703805
16255,CaTi2O4,-3.276745064
16256,CaVO3,-2.943177312
16257,CaTi4O8,-3.373551518
16258,Ca(Fe9O13)2,-1.776142132
16259,CaV4O9,-2.648308108
16260,CaCr2O6,-2.007224191
16261,Ca(TiN)2,-0.786323018
16262,Ca(VN)2,-0.488035581
16263,Ca2WN2,-0.853320737
16264,CaCrO2,-2.388191634
16265,Ca2Sb3O8,-2.247722809
16266,Ca2Fe3O8,-2.127027161
16267,CaTi2S5,-1.779657412
16268,CaCoF5,-3.12582965
16269,CaMoF5,-3.447288851
16270,CaCrF5,-3.570554655
16271,Ca3Sn2O7,-2.787888781
16272,Ca3Sb2O7,-2.591281814
16273,CaWF5,-3.278701942
16274,CaVF5,-3.681474909
16275,CaFeF4,-3.438182219
16276,CaCoO3,-1.610341496
16277,CaTiF4,-3.572123919
16278,CaWF4,-2.914538731
16279,CaCoF4,-3.271974182
16280,CaMnF4,-3.586125697
16281,CaNiF4,-3.114169665
16282,CaCr2F12,-2.740242343
16283,Ca(CoS2)4,-0.951185816
16284,CaMn2S5,-1.149513822
16285,Ca2MnN2,-0.905382887
16286,CaFeO2,-2.281360364
16287,Ca2V3O8,-2.872485398
16288,CaFe2S5,-0.946982028
16289,Ca3Ti2O7,-3.52839968
16290,CaTiF6,-3.985897204
16291,Ca2Mn3O8,-2.424025627
16292,CaMn2O5,-2.004559348
16293,CaFe5O7,-1.998050748
16294,CaV3O7,-2.720007903
16295,CaTiO2,-2.8021012
16296,Ca(MoO2)4,-1.975109912
16297,Ca2TiN2,-1.17892033
16298,Ca2CrN2,-0.931427007
16299,Ca2VN2,-1.053130095
16300,Ca2Sn3O8,-2.571798575
16301,Ca2W3O8,-2.247207775
16302,Ca(FeN)2,-0.089873205
16303,CaSbF6,-3.207877491
16304,CaSbF5,-3.285901225
16305,CaWF6,-3.379407808
16306,CaMnF6,-3.212238865
16307,CaVF6,-3.481959083
16308,Ca2Co3O8,-1.91924528
16309,Ca(TiS2)8,-1.818332487
16310,CaV4O10,-2.540196716
16311,Ca2CoO3,-2.477465595
16312,CaTiF5,-3.914324473
16313,Ca3CrN3,-1.088245563
16314,Ca5(CoN2)2,-0.815621404
16315,Ca6FeN5,-0.942913995
16316,CaNb2O4,-3.035975317
16317,CaCuO2,-2.085735277
16318,Ca3VN3,-1.227757444
16319,CaCuF4,-3.050379768
16320,Ca3MnN3,-1.03275866
16321,Ca6MnN5,-1.011119976
16322,Ca4Mn2O7,-2.816628084
16323,CaMo2O5,-2.275148591
16324,Ca(SbO3)2,-2.212679744
16325,CaMoO3,-2.688044558
16326,Ca2Ti9O13,-3.100511887
16327,Ca2Cu9O13,-1.251692359
16328,Ca2Sn9O13,-1.845250967
16329,Ca(WO3)2,-2.434971922
16330,CaTi5O7,-3.063181092
16331,Ca2Mn9O13,-2.225516086
16332,Ca2Co9O13,-1.598844772
16333,CaSnO2,-2.247575141
16334,CaMn5O7,-2.202380078
16335,CaCo5O7,-1.565766367
16336,CaV5O7,-2.459345121
16337,CaWO2,-1.886782179
16338,Ca2W9O13,-1.152745804
16339,CaW5O7,-1.097413531
16340,CaVO2,-2.477119781
16341,CaNiF5,-2.831319715
16342,CaTi4O6,-3.145513543
16343,CaCrF4,-3.552972565
16344,CaCuF5,-2.772867478
16345,CaVF4,-3.559018517
16346,Ca2Cr3O8,-2.529352874
16347,Ca3Co2O7,-2.253842363
16348,Ca3Fe2O7,-2.50619048
16349,Ca3Cr2O7,-2.744597962
16350,Ca3Mo2O7,-2.798715062
16351,Ca3Ni2O7,-1.959957171
16352,Ca3W2O7,-2.733195802
16353,Ca2Cu2O5,-1.946561031
16354,Ca2Ti2O5,-3.287112809
16355,Ca2Sb2O5,-2.350527942
16356,Ca2Sn2O5,-2.458408505
16357,Ca(Cu2O3)2,-1.297167678
16358,CaSbO3,-2.454516895
16359,Ca2Co2O5,-2.158724268
16360,Ca2Cr2O5,-2.670055175
16361,Ca2V2O5,-2.797115546
16362,Ca2Fe2O5,-2.480932677
16363,Ca2Ni2O5,-1.835934248
16364,Ca2W2O5,-2.203519456
16365,CaWO3,-2.620305892
16366,CaNiO3,-1.609122624
16367,Ca2Mo2O5,-2.36603648
16368,Ca(Sn2O3)2,-1.815449657
16369,CaSb2O5,-2.064010413
16370,CaSn2O5,-2.294339691
16371,Ca2TeO5,-2.366679693
16372,CaW2O5,-2.092314738
16373,Ca2MoO5,-2.639473368
16374,Ca2WO5,-2.693356424
16375,Ca(SnO2)2,-2.294491215
16376,Ca2CrO5,-2.389178678
16377,Ca(SbO2)2,-2.105171578
16378,CaNi2O5,-1.11436344
16379,Ca(WO2)2,-2.044711552
16380,CaTe2O7,-1.623824244
16381,CaCr2O7,-2.022540987
16382,CaW2O7,-2.296528322
16383,CaCo3O7,-1.466332717
16384,Ca2Ti3O8,-3.478778673
16385,CaFeO3,-2.339049703
16386,CaMn4O6,-2.250833431
16387,Ca2Mo3O8,-2.539584448
16388,Ca2Ni3O8,-1.359940737
16389,CaTi2O5,-3.503574327
16390,CaV2O5,-2.767323697
16391,CaCo2O5,-1.593629323
16392,CaCr2O5,-2.261122026
16393,CaFe2O5,-1.842050663
16394,CaCr4O6,-2.317151513
16395,Ca(Co2O3)2,-1.61852869
16396,Ca(SnO2)4,-2.084626055
16397,Ca(Ni2O3)2,-1.259841965
16398,CaTi3O7,-3.494499934
16399,CaV4O6,-2.466510575
16400,CaSn3O7,-2.209541067
16401,Ca(WO2)4,-1.850628521
16402,CaMo3O7,-2.082154305
16403,CaMn3O7,-1.856193056
16404,CaCr3O7,-2.160959195
16405,CaNi3O7,-0.830193276
16406,CaFe3O7,-1.692417431
16407,Ca(MnS2)4,-1.195486334
16408,Ca(W2O3)2,-1.208745833
16409,Ca3PN,0.059893732
16410,Ca3SbN,-1.176496966
16411,Ca3SbP,-0.990918424
16412,CaRhO3,-1.843121007
16413,CaIrO3,-1.795728415
16414,CaHfO3,-3.685159334
16415,CaOsO3,-1.998567932
16416,LiCaF3,-3.632163486
16417,CaZnSe2,-1.166166117
16418,CaCoSi,-0.528480495
16419,CaSnHg,-0.449629445
16420,Ca16(SiN2)17,-1.381023161
16421,Ca2SiO4,-3.259645275
16422,Ca6Ge2O,-1.077749515
16423,Ca8Si5O18,-3.484130282
16424,Ca4SiN4,-1.236632757
16425,Ca4P2O9,-3.344454501
16426,CaS3O10,-2.247928019
16427,Li2Ca3N6,-0.66879357
16428,Cs2CaCl4,-2.537842115
16429,CaZrF6,-4.168912431
16430,Ca4PdO6,-2.690843881
16431,Ca3TlN,-0.717169782
16432,Ca5P12Rh19,-0.940185736
16433,CaSiNi2,-0.545672709
16434,Ca2Co12P7,-0.70333553
16435,CaPSe3,-0.890338639
16436,Ca(PIr)2,-0.888650503
16437,Ca3(SiIr)4,-0.870687071
16438,Ca3(GaNi)4,-0.487764262
16439,CaGa3Ni2,-0.484460589
16440,Ca3SiO,-1.622958297
16441,Ca3GeN,-0.813073335
16442,CaSn2Ir,-0.573575739
16443,CaSn2Pd,-0.672662659
16444,CaSn2Rh,-0.659737509
16445,Ca(ZnSi)2,-0.286995436
16446,CaTeO4,-2.287180132
16447,CaSO4,-2.772101214
16448,SrCaGe,-0.61468528
16449,LiCa6Ge,-0.051862113
16450,CaMg2Ni9,-0.173654167
16451,CaMgNi4,-0.200087071
16452,Ca(FeSb3)4,-0.155713354
16453,CaNiGe2,-0.540606595
16454,Ca2GeO4,-2.861120707
16455,Ca4Sb2O,-1.736936769
16456,Ca(GaSe2)2,-1.004864305
16457,Ca(ZnGe)2,-0.31524639
16458,LiCaSi2,-0.409939503
16459,LiCaGe2,-0.515458352
16460,Ca2Nb2O7,-3.313694253
16461,Ca2Ta2O7,-3.503744512
16462,Ca2Sb2O7,-2.170487875
16463,Ca3UO6,-3.63706889
16464,Ca(GaS2)2,-1.5002565
16465,Cs2CaF4,-3.506279232
16466,Ca4Ti3O10,-3.542466089
16467,CaTe3O8,-1.913228513
16468,CaMgGe,-0.57615493
16469,CaCdGe,-0.499502341
16470,Ca(GeIr)2,-0.656617256
16471,Ca(GePd)2,-0.716465862
16472,Ca(GeRh)2,-0.808143592
16473,CaZnGe,-0.530776945
16474,LiCaSb,-0.946565767
16475,CaZnSi,-0.45122301
16476,Ca2Ga2O5,-2.783747795
16477,CaTeO3,-2.413533557
16478,CaNb2O6,-3.253529758
16479,Ca4Si3Pd4,-0.816806981
16480,Ca3GeO,-1.714895674
16481,CaSiO3,-3.445167075
16482,Ca(ScS2)2,-2.362282549
16483,CaGeO3,-2.767195501
16484,Ca3(GeP2)2,-0.797478965
16485,Ca6GaN5,-0.960135217
16486,CaGa4O7,-2.520200349
16487,Ca2P2O7,-3.23263367
16488,Ca2UO5,-3.648555198
16489,Ca5(GaSb3)2,-0.760478966
16490,Ca(RhO2)2,-1.810088369
16491,CaTa2O6,-3.502756615
16492,Ca5P12Ir19,-0.708038704
16493,Ca(YS2)2,-2.483386284
16494,Ca(NiO2)4,-1.127894722
16495,Ca2MnO4,-2.756951612
16496,CaFe3O5,-2.178574095
16497,CaCrO4,-2.454966852
16498,CaMoO4,-2.712723471
16499,CaWO4,-2.732416663
16500,CaMo5O8,-1.85410665
16501,Ca(GeRu)2,-0.519899884
16502,Ca(MnGe)2,-0.337245843
16503,CaIn2Cu,-0.324785165
16504,CaPbO3,-2.195002997
16505,CaIn4Pd,-0.449499865
16506,LiCa2Si3,-0.45918149
16507,TbCaF6,-3.787284915
16508,CaInRh,-0.557212286
16509,CaMnSn,-0.251493435
16510,CaMnGe,-0.3365746
16511,Ca3PbO,-1.710915422
16512,Ca4In2N,-0.714229465
16513,CaPbF6,-3.05740491
16514,SrCaSn,-0.682799922
16515,Ca2InPd2,-0.737223317
16516,CaIn4Ir,-0.350682791
16517,CaIn2Ir,-0.452967884
16518,CaHgPb,-0.347876605
16519,CaRuO3,-2.241045409
16520,LiCaPb,-0.480465333
16521,CaIn2Pt,-0.70265562
16522,CaMnSi,-0.362818
16523,Ca3PbN,0.74074064
16524,CaMnSb2,-0.408179352
16525,Ca2PbO4,-2.571897361
16526,SrCaPb,-0.596522511
16527,CaIn4Rh,-0.419610909
16528,Ca2RuO4,-2.535994695
16529,Ca9Zn4Sb9,-0.813225765
16530,Ca3(InNi2)4,-0.263536982
16531,Ca2Sn5Pt3,-0.732963035
16532,CaCuGe,-0.477840375
16533,Ca2InPt2,-0.897857502
16534,Yb2CaO4,-2.923594042
16535,Ca(Cu2P)2,-0.447326722
16536,CaIn2Pd,-0.628598183
16537,CaIn2O4,-2.421755303
16538,Ca2NCl,-1.810036111
16539,Ca2PI,-1.4163522
16540,Ca4Cl6O,-2.890732675
16541,CaHCl,-1.744448337
16542,Ca(HO)2,-2.237094098
16543,RbCaH3,-0.469884497
16544,Ca2HN,-0.924885788
16545,CaHI,-1.169586296
16546,Rb2CaH4,-0.405572112
16547,Ca2Hf7O16,-3.957473329
16548,Ca3PI3,-1.527434205
16549,Ca(IO3)2,-1.543434135
16550,CaClF,-3.510879446
16551,CaSe2O5,-1.928475129
16552,Ca3SiO5,-3.394347964
16553,CaPPt,-1.14459052
16554,Ca5(GaN2)2,-0.91481051
16555,Ca2Se3O8,-2.086881034
16556,Ca2IN,-1.274261234
16557,CaNiN,-0.804065419
16558,Ca2Cu6P5,-0.467380351
16559,Ca2Si5N8,-1.420455274
16560,Ca4(PPd)5,-0.978304091
16561,Ca3Ga4O9,-2.753811272
16562,Ca2Os2O7,-2.25675047
16563,Ca3SnO,-1.777031414
16564,Ca2Ge7O16,-2.387937527
16565,Ca2Sb2S5,-1.469006756
16566,Ca3PCl3,-2.268943791
16567,Ca(NiGe)2,-0.546858542
16568,Ca11(ReO6)4,-2.92540952
16569,Ca11InSb9,-0.979903497
16570,CaSi2O5,-3.304783919
16571,Ca10P6O25,-3.33761042
16572,Ca4GeN4,-0.985083455
16573,Ca2GeN2,-0.963574096
16574,Ca5(CuO2)6,-1.998600895
16575,CaSn2F6,-3.136009288
16576,Ca21(Mn2Sb9)2,-0.874627697
16577,Na10CaSn12,-0.268883315
16578,Ca2SiIr2,-0.729641037
16579,CaSnPd,-0.812042757
16580,Ca2GaCu2,-0.293914659
16581,LiCaSn,-0.565045574
16582,CaTa4O11,-3.449290362
16583,Ca5(Ga3O7)2,-2.77584316
16584,Ca7Tl3N2,-0.692926155
16585,CaP4O11,-2.805834956
16586,Ca4Nb2O9,-3.35148887
16587,CaGaPt,-0.921092612
16588,CaGePt,-0.914439988
16589,Ca7Ni4Sn13,-0.493713355
16590,CaZnSn,-0.51602282
16591,Ca4P7Ir8,-0.882374481
16592,Ca(NO3)2,-1.620290187
16593,LiCaN,-0.777810327
16594,Ca3(GaPt)2,-0.862418119
16595,Ca3(GaPd)2,-0.715904514
16596,Ca3Ga3Ir2,-0.624679554
16597,Ca(Fe2O3)2,-2.067862016
16598,Ca(CoP)2,-0.853766851
16599,Ca2V2O7,-2.925890184
16600,Ca3Ru2O7,-2.418893658
16601,CaPd3O4,-1.525914316
16602,CaUS2,-1.498949043
16603,Ca(CeS2)2,-2.399975469
16604,Ca2NF,-2.251031343
16605,Ca(HoS2)2,-2.443594857
16606,Ca(PrS2)2,-2.455169942
16607,Ca(Sm2Se3)4,-1.858912118
16608,Ca3(PO4)2,-3.303391868
16609,CaHN,-0.916166504
16610,Ca4Sb2S,-1.370750086
16611,Ca(LaS2)2,-2.555555028
16612,Ca(DyS2)2,-2.453283853
16613,Ca(NdS2)2,-2.458511801
16614,Ca(LaTe2)2,-1.609011227
16615,Ca(SmS2)2,-2.460695884
16616,Ca(GdS2)2,-2.457742775
16617,RbCaF3,-3.7401884
16618,CaGe2O5,-2.524397241
16619,Ca(NdTe2)2,-1.489355924
16620,Ca(PrTe2)2,-1.500732889
16621,Tb2CaS4,-2.460093434
16622,Ca(Pr2Se3)4,-1.882948358