id,Composition,FormationEnergy
31376,Li2Fe2(SO4)3,-2.170887532
31377,RbFe3O5,-1.798489547
31378,K2LiFeO3,-1.816125955
31379,RbFe5O8,-1.714271089
31380,La4FeO8,-3.300136349
31381,Li3Fe5O9,-1.953121694
31382,Li9V12Fe7O48,-2.149688847
31383,La7(FeO8)2,-3.013176567
31384,Fe7P12WO48,-2.24086155
31385,Ti2Mn3Fe3O16,-2.034983636
31386,Li3FeO3,-2.024709622
31387,Fe(SbO3)4,-1.688889193
31388,Mn13Fe3O32,-1.691224038
31389,Mn3FeO8,-1.656392151
31390,Mg2FeO4,-2.345981772
31391,Rb2Fe4O7,-1.811955078
31392,Li4(FeO2)9,-1.7256813
31393,Li4Ti3Fe5O16,-2.360840406
31394,Li7Fe3O8,-2.001509251
31395,Li5Fe7O12,-1.991235884
31396,Fe(SO4)2,-1.822126478
31397,Li7Fe5O12,-2.008499734
31398,Li8Mn13Fe3O32,-2.007472643
31399,TiV4FeO12,-2.366195149
31400,V4FeNiO12,-2.148450366
31401,KLi4FeO5,-1.833099314
31402,Li6FeO4,-2.007327811
31403,Li4Fe3O8,-1.80660491
31404,Li4Y3FeO8,-2.929867078
31405,Li6FeO6,-1.827491714
31406,LiFe(SO4)2,-2.117934447
31407,KLi2FeO3,-1.914871708
31408,Mn5Fe3O16,-1.622906038
31409,V2FeO6,-2.253201587
31410,Mn4FeO8,-1.791664479
31411,Mn5FeO12,-1.710373154
31412,Mg(Fe5O8)2,-1.765579971
31413,LiFe3O4,-1.848176408
31414,TiFeO4,-2.456545614
31415,Li8Fe2O9,-1.903696173
31416,LiFe23O32,-1.823586014
31417,Li9Fe23O32,-1.872954483
31418,Mg3Fe4O7,-2.265248388
31419,Ti12Fe5O32,-2.96533072
31420,Sr24Fe16O55,-2.507900105
31421,Li2FeO2,-1.969138299
31422,Sr21Fe14O47,-2.536542723
31423,LiFe3(SnS4)2,-0.819563376
31424,Li2Fe3NiO8,-1.585325734
31425,Na9Fe10(SiO3)20,-2.776236406
31426,Fe19(SiO4)12,-2.454000624
31427,Mn3Fe3(TeO8)2,-1.691302711
31428,Li2FeNi3O8,-1.267005179
31429,Fe7Te(PO4)12,-2.17561451
31430,Mn7Fe3O20,-1.636172496
31431,V5FeO12,-2.312645546
31432,Zn9Fe21O40,-1.792275131
31433,LiFe(SiO3)2,-2.793036327
31434,Li5Mn7Fe3O20,-2.018830825
31435,Na7(FeO4)2,-1.615830363
31436,Li6Fe5O12,-1.92702779
31437,Li5Fe3O8,-1.945506624
31438,Li5(FeO2)4,-1.971641519
31439,Na6FeO4,-1.513854367
31440,Na4Fe6O13,-1.645608683
31441,Li14Fe4O13,-1.995337867
31442,Li8Fe2O7,-2.0223469
31443,Ho3Fe5O12,-2.687037257
31444,NaFeO3,-1.484135367
31445,Sm(FeO2)2,-2.501541216
31446,Li2Fe(SO4)2,-2.24281777
31447,Li11(FeO3)4,-1.94043862
31448,Li5Fe4(P2O7)4,-2.548399268
31449,Li3Mn5(FeO6)2,-1.949127636
31450,NaFe11O17,-1.678706254
31451,Fe7(Ni3O8)2,-1.411330939
31452,Li35(FeO4)8,-1.996368624
31453,Rb5Fe3(SO5)6,-1.717939279
31454,KFe3(PO6)2,-1.902447566
31455,Fe13(SnO10)2,-1.529267046
31456,Ta2FeOs,-0.260792694
31457,FeGeRu2,-0.158872651
31458,HfFe2Sn,-0.242201016
31459,TiFe2Ge,-0.472937258
31460,TaGaFe2,-0.308699344
31461,V16FeO41,-2.214597484
31462,TaFeTe3,-0.257795029
31463,Sr2LiFe2N3,-0.668748902
31464,Fe(SiP)4,-0.28535999
31465,Zr6FeTe2,-0.527707784
31466,NbFeSb,-0.336339717
31467,K2Fe2(SO4)3,-2.128188227
31468,Pr6Fe13Si,-0.055176215
31469,VFeTe,-0.08078331
31470,VFeSe,-0.160610336
31471,FePbO3,-1.473577945
31472,RbFeO3,-1.282143491
31473,PrFeGe2,-0.496709005
31474,SmFeP,-0.956587363
31475,VFeRu2,-0.111029592
31476,Zr(FeGe)6,-0.254835808
31477,Hf2FeTc,-0.409603034
31478,Li(Fe2O3)4,-1.827572866
31479,Li3Fe2(PO3)7,-2.533729591
31480,TiFe2Sb,-0.243006077
31481,Ti2GaFe,-0.23656391
31482,MgFe2P2O9,-2.517505483
31483,MgFe2(PO4)2,-2.575170016
31484,HoMg(FeO3)2,-2.525273727
31485,ZnFe2(PO4)2,-2.335639248
31486,HoZn(FeO3)2,-2.240284455
31487,MgFe3P3O13,-2.481993833
31488,ZnFe3P3O13,-2.319074643
31489,Mg3Fe2(SiO4)3,-2.851953253
31490,Mg2Fe2(SiO4)3,-2.505552004
31491,MgFeP2O7,-2.732483083
31492,ZnFeP2O7,-2.445747332
31493,V6Zn(FeO6)4,-1.958044383
31494,Mg2Nb2FeO8,-2.896215741
31495,La2ZnFeO6,-2.801508466
31496,MgFe2(SiO3)4,-2.823300025
31497,La2MgFeO6,-3.021214283
31498,Zn2FeSbO6,-1.796374672
31499,Mg2FeSbO6,-2.345612477
31500,ZnFeSiO5,-2.042402515
31501,MgV6(FeO6)4,-2.044101766
31502,MgFe(SiO3)2,-2.968822303
31503,MgFe(PO3)4,-2.704518235
31504,Ta2Zn2FeO8,-2.636066762
31505,Mg2Ta2FeO8,-3.0613688
31506,SrFe(PO4)2,-2.604702746
31507,Mg4Fe5(TeO6)3,-2.010267111
31508,MgFeSiO5,-2.411879355
31509,MgFePO5,-2.568454184
31510,ZnFePO5,-2.234617814
31511,Nb2Zn2FeO8,-2.469403276
31512,Y2Fe2O7,-2.691849435
31513,Zn3Fe2(SiO4)3,-2.380090371
31514,Y2Fe3(SiO4)3,-2.902309284
31515,Mg2TaFeO6,-2.835603331
31516,TaZn2FeO6,-2.279591545
31517,Sr2YFe2O7,-2.591240812
31518,Sr2Y2Fe2O7,-2.913674038
31519,Mg3Fe2(GeO4)3,-2.348733065
31520,Zn3Fe2(Si2O7)2,-2.507909197
31521,Mg2FeWO6,-2.451350223
31522,Zn2FeWO6,-1.89195464
31523,Mg3Fe2(Si2O7)2,-2.867393122
31524,ZnFe(SiO3)2,-2.666799953
31525,Zn3Fe2(GeO4)3,-1.888655809
31526,Sr2GaFe2O7,-2.147326575
31527,Mg2FeIrO6,-2.063613792
31528,Zn2FeIrO6,-1.50783186
31529,YFe(WO4)2,-2.468895737
31530,Mg3Fe4(SbO4)6,-1.947056013
31531,Zn3Fe4(SbO4)6,-1.713756541
31532,Mg3Ta6(FeO6)4,-2.867959119
31533,Mg3Fe4(WO4)6,-2.163290062
31534,Ta6Zn3(FeO6)4,-2.523909807
31535,Zn3Fe4(MoO4)6,-1.93673242
31536,Mg3Fe4(MoO4)6,-2.174658179
31537,Zn3Fe4(WO4)6,-1.826457368
31538,MgFe(GeO3)2,-2.28692418
31539,FeNiP2O9,-1.839985986
31540,ZnFe(Si2O5)2,-2.844935549
31541,MgFe(Si2O5)2,-3.030993452
31542,ZnFe(GeO3)2,-1.991853259
31543,LaFeTeO6,-2.254257033
31544,LaMg(FeO3)2,-2.489606049
31545,LaZn(FeO3)2,-2.206696295
31546,MgFe3(P2O7)2,-2.550275212
31547,LaFeWO6,-2.591442113
31548,LaFeMoO6,-2.508480403
31549,LaVFeO6,-2.447225548
31550,LaFeReO6,-2.520742009
31551,ZnFe2(PO5)2,-2.022157206
31552,LaTaFeO6,-2.859896503
31553,ZnFe3(P2O7)2,-2.403368385
31554,MgFe2(PO5)2,-2.235873701
31555,LaFeSbO6,-2.251893966
31556,PrMg(FeO3)2,-2.458403139
31557,Fe13Si2(SbO14)2,-1.765827766
31558,PrZn(FeO3)2,-2.174984163
31559,LiFe3P3O13,-2.349122019
31560,LiFe2P2O9,-2.319304431
31561,NaFe3P3O13,-2.353043618
31562,NaFeP2O7,-2.566092048
31563,Sr2FeMoO6,-2.620978017
31564,Li2FeSiO4,-2.625643572
31565,Na3Fe(PO4)2,-2.538946515
31566,KNaFe(Si2O5)2,-2.94703639
31567,NaFePO4,-2.48771796
31568,Sm4FeSe6O,-1.901101409
31569,Fe2Ni(PO4)2,-2.272900407
31570,LiFe(WO4)2,-2.17719893
31571,FeSb6(Pb2S7)2,-0.70292898
31572,Na4Fe2(PO4)3,-2.505250892
31573,Fe2P4PbO14,-2.483157402
31574,Fe4Ni3(PO4)6,-2.266977923
31575,VFeH2O5,-1.905604511
31576,Na2Li2FeO4,-1.801291525
31577,Fe2P3(HO3)3,-1.993976216
31578,Fe4P3(HO5)3,-2.200253897
31579,LaFeGe2O7,-2.544610699
31580,Fe7P6(HO6)4,-2.287867362
31581,Li3Fe(PO4)2,-2.598543229
31582,LiFe(PO3)4,-2.556567839
31583,LiFe(PO3)3,-2.601126298
31584,LiFe2P3O10,-2.546885298
31585,LiFe3(P3O10)2,-2.505856259
31586,Li4Fe5(P3O11)2,-2.522052654
31587,Li6Fe9(PO4)8,-2.472126387
31588,Li3Fe2P5O16,-2.600249215
31589,Li3Fe(PO3)8,-2.482671804
31590,LiFe2P5O16,-2.555351748
31591,Li4Fe(PO4)2,-2.658032976
31592,SrNbFeO6,-2.374695168
31593,Li6Fe3P8O29,-2.496302605
31594,SmFePO,-1.414402227
31595,NaFe(SiO3)2,-2.795824032
31596,Li2Fe5(PO4)4,-2.4369372
31597,Li3FeP2O9,-2.356050718
31598,Li7Fe4P9O32,-2.575374569
31599,Fe2P2H4O9,-2.088176783
31600,FeNiPO5,-2.083666173
31601,FeP(H2O3)2,-1.912162389
31602,Na2LiFeO4,-1.593628098
31603,FeSiP3O11,-2.684878189
31604,Na2Li3FeO4,-1.960838232
31605,Tb2SrFe2O7,-2.997077795
31606,Na3Fe2(PO4)3,-2.520360284
31607,SrFe2(SeO3)4,-1.724298128
31608,Ti2Fe(PO5)2,-2.971517999
31609,NaFe3(PO4)3,-2.410654395
31610,Sr3Fe2(SeO3)6,-1.959538068
31611,FeP2HO7,-2.372492046
31612,Ti4Fe(PO4)6,-2.987088815
31613,NaFe3Si3O10,-2.640703093
31614,NaZnFe2(PO4)3,-2.453173715
31615,FeP2PbO7,-2.467720764
31616,Na3Fe3(PO4)4,-2.514069263
31617,Na2TiFe5(Si3O10)2,-2.781007852
31618,Na2Fe3(PO4)3,-2.473279209
31619,Na7Fe4(PO4)6,-2.51060195
31620,Fe3SiP5O19,-2.56334627
31621,Li9Fe3P8O29,-2.643579553
31622,FeP3(HO2)6,-2.044318974
31623,Tb4Ga6FeGe6,-0.488031588
31624,LiFe4(PO4)4,-2.440920174
31625,FeH2SO5,-1.846114992
31626,NaTiFeO4,-2.401686543
31627,LaFe5(GeO5)3,-2.19719769
31628,LiFe(PO3)5,-2.462818219
31629,NaMgFe(SO4)3,-2.27317496
31630,SrFeMoO5,-2.250465065
31631,Rb2ZrFe(PO4)3,-2.861128
31632,KFeH5(SO5)2,-1.435968143
31633,LiFe4P7O24,-2.482303704
31634,LiFe2P3O13,-2.131894271
31635,FeH4S2NO8,-1.660498788
31636,NaFe7(PO4)6,-2.073766369
31637,Fe2P4Pb3O16,-2.410261765
31638,LiFe3P3O11,-2.453616859
31639,Li2Fe(PO3)5,-2.586373811
31640,LiFe5(P2O7)4,-2.468454464
31641,Li3Fe4P9O32,-2.3792963
31642,LiFeP4O13,-2.335743566
31643,Li4Fe3P4O15,-2.539077836
31644,Li3Fe3P8O29,-2.297763636
31645,Fe3P2(HO)16,-1.729067168
31646,ZrFeP3PbO12,-2.775926152
31647,K4NbFe3(PO4)6,-2.649041748
31648,FeP3H5NO10,-2.031615246
31649,FeP2(H4O5)2,-1.78939507
31650,Fe3H4(S2O9)2,-1.888285782
31651,TiMnFe(PO4)3,-2.740845716
31652,TbFeGe2O7,-2.538626777
31653,Fe3P2H3O11,-2.09072945
31654,Fe5P4(H3O10)2,-2.077637157
31655,K2FeH8(SO6)2,-1.837114756
31656,NaFe3P2(H4O7)2,-1.938092039
31657,Fe3P2H6O11,-1.429624235
31658,FeH6SO6,-1.556327033
31659,Fe3P2(H2O3)4,-1.915178477
31660,FeP3(HO5)2,-2.335676113
31661,FeP3(H2O3)3,-1.821375491
31662,LiFe(Si2O5)2,-2.912191308
31663,Li16Fe4SiO16,-2.132186398
31664,Li7Fe7SiO16,-2.086509018
31665,Li2Fe3(Si3O8)2,-2.817461193
31666,Li4Fe2Si3O10,-2.709516033
31667,Li2Fe5(Si2O7)2,-2.563313663
31668,Li2Fe2Si2O7,-2.6028283
31669,TiFe(PO4)2,-2.731850508
31670,LiFeSi3O8,-2.858463423
31671,Li5FeP3O11,-2.636766302
31672,Li4Fe(PO3)6,-2.593595127
31673,Li2Fe2Si5O13,-2.875266956
31674,Li2FePO5,-2.464061787
31675,LiFePO5,-2.240829736
31676,Li4VFe(WO6)2,-2.156330698
31677,Li7Fe2P7O24,-2.59133104
31678,Li2Fe3Si3O10,-2.635071941
31679,Li2Fe4Si4O13,-2.632203027
31680,Li2Fe2Si4O11,-2.836504027
31681,Li3Fe(Si2O5)3,-2.970680442
31682,Li7Fe3(SiO6)2,-2.408587647
31683,Li4FeSi2O7,-2.730969556
31684,Li3Fe3SiO8,-2.257331401
31685,Mn2V3Fe(PO4)6,-2.596613556
31686,Li3Fe5(PO4)6,-2.410767487
31687,Li4Fe7(PO4)6,-2.448863007
31688,Li2Fe3P5O18,-2.483707796
31689,Li4Fe(SiO3)3,-2.758351741
31690,Li10Fe(SiO5)2,-2.476212308
31691,Li3FeSi2O7,-2.691050912
31692,FeNi(PO4)2,-2.098529419
31693,Li3Fe2(SiO4)2,-2.564295175
31694,LiFe2P3O11,-2.48579183
31695,LiFe5P3O13,-2.333802201
31696,Li2Fe3P9O28,-2.522944963
31697,Li4V2Fe5O12,-2.10908015
31698,Li2Ti(FeO3)2,-2.424953155
31699,Li3V3(FeO5)2,-2.251804814
31700,Li4Ti2Fe5O12,-2.371849398
31701,Li3TiFe3O8,-2.297296672
31702,Li3Ti2Fe3O10,-2.525648856
31703,LiTiFeO4,-2.62393167
31704,Li3Ti2(FeO4)2,-2.634324362
31705,Li3FeSiO5,-2.474023674
31706,LiTiFe2O5,-2.423987873
31707,Li3VFe3O8,-2.113862663
31708,Li2Fe3(SiO4)2,-2.482448587
31709,Li2Fe2SiO6,-2.348287591
31710,Li2Fe2NiO6,-1.537531027
31711,Li4V2Fe3O10,-2.203602565
31712,Li4Ti2Fe3O10,-2.531503001
31713,Li2V(FeO3)2,-1.890435167
31714,Li4Fe3(NiO5)2,-1.647280548
31715,Li3Fe(Ni2O5)2,-1.256878883
31716,Li3Fe5(NiO6)2,-1.678216283
31717,Li3Fe2Ni3O10,-1.363873282
31718,Li3FeNi3O8,-1.405330531
31719,LiFeNiO4,-1.379681346
31720,Li4Fe5(NiO6)2,-1.773021266
31721,Li4Mn5(FeO6)2,-2.051329342
31722,Li2V2FeO6,-2.160784931
31723,Li2Mn5(FeO6)2,-1.937047093
31724,Li3Fe3(SnO5)2,-2.021896914
31725,Li5Fe(SiO4)2,-2.597711895
31726,Li2Mn(FeO3)2,-1.99234455
31727,Li6FeNi9O20,-1.18432261
31728,Li4Fe2Si4O13,-2.743384076
31729,Li8Fe3Ni7O20,-1.472124404
31730,Na5FeHO4,-1.610413175
31731,Li8FeNi9O20,-1.323316747
31732,Li2Fe(NiO3)2,-1.403181381
31733,Li2Fe3TeO8,-1.898018649
31734,Ti3Fe2P6WO24,-2.766089246
31735,Li2Fe(SiO3)2,-2.748032516
31736,Li4Fe2SiO7,-2.356390285
31737,Li3V2(FeO4)2,-2.223921231
31738,VFe3Ni2(PO4)6,-2.336719221
31739,Li3NbFe3O8,-2.229977842
31740,Li2FeSiO5,-2.34244173
31741,Li3V2Fe3O10,-2.191169725
31742,Li2Ti2FeO6,-2.828884946
31743,Li4V3(FeO5)2,-2.27590236
31744,Li5Mn3(FeO5)2,-2.106169301
31745,Li2Mn2FeO6,-2.028638181
31746,Li17Fe6(Si2O7)6,-2.69115549
31747,Li5FeHO4,-1.909678763
31748,Li4MnFe3O8,-2.088653873
31749,Li7Fe4NiO12,-1.8140389
31750,Li4Ti3Fe2Ni3O16,-2.14758237
31751,Li3Mn3FeO8,-1.965894704
31752,NaFe(PO3)3,-2.568397335
31753,Na8Fe7(PO4)8,-2.463698511
31754,Na9Fe3P8O29,-2.584097414
31755,Li3V(FeO3)2,-2.180140789
31756,Li4Fe3TeO8,-1.911763224
31757,Li6Mn(FeO3)2,-1.957434553
31758,MnFe(PO4)2,-2.430080427
31759,KFeH2S2O9,-1.996951784
31760,Li6Fe5WO12,-2.029504413
31761,Li10Mn5Fe3O16,-1.997271156
31762,Li5FeNi3O8,-1.550134144
31763,Li8Mn6(FeO6)3,-1.950044381
31764,Li2NbFe3O8,-2.276586618
31765,Li2Fe2Si8O19,-2.954747144
31766,Li6Fe5SbO12,-2.040094212
31767,Li6NbFe5O12,-2.167062816
31768,Li2TiFeO4,-2.62135519
31769,Li4V3FeO8,-2.377630465
31770,Li2VFeO4,-2.128063093
31771,Li5Ti2Fe3O10,-2.528255858
31772,Li4FeNi3O8,-1.544042587
31773,Li4VFe3O8,-2.184131733
31774,Li3MnFe3O8,-2.008279647
31775,Li2FeNiO4,-1.701061208
31776,LiMnFeO4,-2.01786364
31777,Li6Fe5NiO12,-1.922421334
31778,Li5Mn5(FeO6)2,-2.076526371
31779,V2Fe3Sb(PO4)6,-2.453135611
31780,Li6Mn5FeO12,-2.071678728
31781,Li3FePO5,-2.49162114
31782,Li2Fe2P2O9,-2.400893524
31783,Li8Mn(FeO4)3,-1.951352564
31784,LiFe2(PO4)2,-2.428160327
31785,Li2FeSi3O8,-2.827401577
31786,Li8Nb(FeO4)3,-2.145180348
31787,Li4Ti2Fe3Sb3O16,-2.295037248
31788,Li5Fe5Si7O24,-2.635209845
31789,FePHO5,-1.989614057
31790,Li3Mn2(FeO4)2,-1.908735202
31791,Li4ScFe3(SiO3)8,-2.952176431
31792,SrLiLa3FeO8,-3.146276768
31793,Li6ScFe5(SiO3)12,-2.907735684
31794,Na5LiFe6(SiO3)12,-2.79652146
31795,Mn3Fe(PO4)4,-2.442772009
31796,MnFe3(PO4)4,-2.419909162
31797,Na5Fe6(SiO3)12,-2.761568728
31798,Li2Mn3(FeO4)3,-1.823696669
31799,Li9Fe5(SiO8)2,-2.323558432
31800,Li3Mn3(FeO5)2,-1.979606284
31801,Li4Mn3(FeO5)2,-2.042735124
31802,Mn2VFe3(PO4)6,-2.491331165
31803,Li2Fe5Si5O16,-2.619545024
31804,VFe(P2O7)2,-2.513428132
31805,Li2Fe2Si3O10,-2.694214712
31806,Li12Mn2Fe3O16,-1.96554016
31807,Li3Fe4(PO4)6,-2.343570333
31808,MnFe7(PO4)8,-2.414645676
31809,Li3Fe2(PO5)2,-2.340411814
31810,Li2Nb2Fe3O10,-2.402256184
31811,Li3Nb2Fe3O10,-2.411107896
31812,Li3Fe2(NiO4)2,-1.571299552
31813,Li4Fe2Ni3O10,-1.50479846
31814,Li3Fe3NiO8,-1.754560795
31815,Li6Fe(SiO4)2,-2.595166479
31816,Li2MnFe3O8,-1.860708402
31817,ZrFe(PO4)3,-2.612877477
31818,Li4Mn5(Fe2O9)2,-1.907279144
31819,Li11Ti8Fe5O32,-2.629282674
31820,Li11Fe(WO4)7,-2.228264635
31821,Li4Nb2Fe3O10,-2.409189823
31822,Li3Mn4(FeO6)2,-2.040207929
31823,Li10FeNi9O20,-1.436771502
31824,LiZn4Fe13O24,-1.832947498
31825,Li5Ti6FeO16,-3.100134276
31826,Li2TiFe2O5,-2.426298868
31827,Li4Fe5Sn3O16,-1.979392618
31828,Li3Fe4NiO8,-1.87118926
31829,Li3Mn4FeO8,-2.070870224
31830,Li4Fe5SnO12,-1.928126484
31831,Li5Fe3(SnO5)2,-2.078356097
31832,Li3Fe4SnO8,-1.961542974
31833,Li4Fe3NiO8,-1.894071232
31834,Li4Fe3Sb5O16,-1.968111697
31835,Li7Nb2Fe3O16,-2.088316703
31836,Li2VFe3O8,-1.975908679
31837,Li4TiFe3O8,-2.339605027
31838,Li2VFeO5,-2.248277332
31839,Li2Ti3FeO8,-2.969366951
31840,LiMn2Fe3O8,-1.955440729
31841,Li4Nb3Fe5O16,-2.368017956
31842,Li4Fe5Sb3O16,-1.992059495
31843,Li2Mn3FeO8,-2.008548575
31844,Fe5Ni(PO4)6,-2.287639038
31845,Li5V2Fe5O12,-2.138199533
31846,Li4Ti2Mn3Fe3O16,-2.349012515
31847,Li4V3Fe3(WO8)2,-2.251947178
31848,Li2FeH12(SO7)2,-1.692086152
31849,FeH12(SO7)2,-1.571473959
31850,Li2FeH4(SO5)2,-1.937920986
31851,Li2MnFeO4,-2.093010128
31852,Li4TiFe5O12,-2.086751357
31853,Li4Fe5NiO12,-1.689467793
31854,Li10Fe3Sb7O24,-2.00948168
31855,Li4NbFe3O8,-2.262225641
31856,VFe(PO4)2,-2.545100544
31857,Li3Fe(NiO2)4,-1.431380849
31858,Li10Fe3Ni7O20,-1.579581851
31859,Li4Ti2V3(Fe2O9)2,-2.42164977
31860,Li3V3FeO8,-2.268140381
31861,Li4MnFe5O12,-1.879586522
31862,LiFeSnO4,-2.095926948
31863,Li3Mn(FeO2)4,-1.944331846
31864,Li5Fe5(SbO6)2,-1.933133028
31865,Li5Fe3(SbO5)2,-1.977127288
31866,Li3V(FeO2)4,-2.038689241
31867,Li5Mn2Fe3O10,-2.031143247
31868,Li3Zn2Fe19O32,-1.862681526
31869,Li3Ti(FeO2)4,-2.235416435
31870,Na4Li3(FeO4)2,-1.700013504
31871,LiZnFe7O12,-1.869676123
31872,Na8Li9(FeO4)4,-1.841453461
31873,Li11Ti4Fe9O32,-2.176846712
31874,LiZn6Fe17O32,-1.798527443
31875,Fe5Te(PO4)6,-2.334360475
31876,Li5Fe2Ni3O10,-1.637930162
31877,Li5Ti2Fe5O12,-2.380929189
31878,Li6Fe3Sb3O16,-1.966168805
31879,Li7Fe3(WO8)2,-1.988091643
31880,Li5Fe5(NiO6)2,-1.860641276
31881,Li4FeNi5O12,-1.249471217
31882,Li5Mn2Fe5O12,-2.005728808
31883,Li6Nb3Fe3O16,-2.345592852
31884,Li5Fe2Ni5O12,-1.518780043
31885,NbFe5(PO4)6,-2.529783652
31886,MnFe5(PO4)6,-2.375286603
31887,NaFe2(SiO3)4,-2.695419088
31888,Li3Fe2NiO6,-1.830658756
31889,Li4Fe5Ni3O16,-1.51754899
31890,Li2V3FeO8,-2.200996578
31891,Mn3Fe2Sb3O16,-1.804299067
31892,Li3Zn(Fe5O8)4,-1.880455732
31893,LiNbFeO4,-2.566329323
31894,Li2Fe2SnO6,-1.769852407
31895,Li3V2FeO6,-2.27344051
31896,Li5Mn8Fe11O32,-1.805323272
31897,LiFeSbO4,-2.020489777
31898,Li3Nb4FeO12,-2.773575271
31899,LiZn2Fe9O16,-1.859158543
31900,Li3Mg2Fe19O32,-1.969057259
31901,FeP2WO8,-2.400115127
31902,Li3Fe3SbO8,-2.010660542
31903,Li4Fe3WO8,-2.072630831
31904,Li2Fe3SbO8,-2.047277777
31905,Li3Fe3TeO8,-1.932757946
31906,Li4Fe3Ni3(WO8)2,-1.860025305
31907,Li2TiFe3O8,-2.255299084
31908,Mn5Fe(PO4)6,-2.413482471
31909,Fe5Sb(PO4)6,-2.402314481
31910,Li4Mn3Fe5O16,-1.90318972
31911,NbFe(PO4)2,-2.599579587
31912,Li4V3Fe5O16,-2.166112934
31913,FeH4(SO5)2,-1.678628061
31914,FeSn3(PO4)6,-2.336606589
31915,Li4Mn5Fe3O16,-1.989304405
31916,Li7Fe4(PO4)6,-2.535984308
31917,Fe5Sn(PO4)6,-2.414011043
31918,Li4NbFe5O12,-2.135402762
31919,Li4Mn5FeO12,-1.997716629
31920,Li3Fe(SbO3)4,-1.995962434
31921,Li5Nb2Fe5O12,-2.228347191
31922,Li4Fe3TeO12,-1.663800793
31923,Li3Fe2SnO6,-2.041792779
31924,Li2Fe3SnO8,-1.980975326
31925,Li5Fe5(PO4)6,-2.487008249
31926,Li5V2Fe3O10,-2.224576846
31927,Li5Nb2Fe3O10,-2.360995598
31928,LiZn(FeO2)4,-1.821729803
31929,LiZn(Fe5O8)2,-1.859104973
31930,LiMn3(FeO4)2,-1.929836536
31931,Li3Mn(FeO3)2,-2.086409793
31932,Li4Fe3Ni5O16,-1.292576703
31933,Li4Mn3FeO8,-1.990892529
31934,Li5Fe3(NiO5)2,-1.75162726
31935,Li2Fe3(PO4)3,-2.455681357
31936,Li2Fe2(PO4)3,-2.438968415
31937,Li2Fe2(Si2O5)3,-2.903759431
31938,Li9Fe3(WO4)7,-2.199374234
31939,LiVFeO4,-2.274298819
31940,TiFe5(PO4)6,-2.544366045
31941,V3Fe(PO4)6,-2.506742018
31942,Li4Ti3V3(FeO8)2,-2.699324555
31943,LiMg(Fe5O8)2,-1.78532009
31944,Li3Fe(NiO3)2,-1.595580721
31945,Li4Fe2(PO4)3,-2.572462224
31946,Li5V5(FeO6)2,-2.312928384
31947,Li7Ti12Fe5O32,-3.006360959
31948,Li3Fe4WO8,-1.932978163
31949,LiV2FeO6,-2.261009563
31950,Li4Nb(FeO4)3,-1.848280207
31951,Li3Ti2FeO6,-2.750371532
31952,Mn3Fe(PO4)6,-2.204394087
31953,Fe2Ni(PO4)3,-2.237526679
31954,FeSb3(PO4)6,-2.379514351
31955,Fe3P6WO24,-2.32511625
31956,Fe3Ni(PO4)4,-2.267336771
31957,NaLi3Fe4(SiO3)8,-2.810520764
31958,FeNi3(PO4)4,-1.988559423
31959,Li3Fe4SbO8,-1.96306289
31960,Fe3Sb(PO4)6,-2.234830598
31961,Li4Ti3Fe3(WO8)2,-2.542836923
31962,Li2Fe3WO8,-2.067899092
31963,Li3V3(FeO6)2,-2.300364053
31964,Mn3Nb2Fe3O16,-2.065275812
31965,TiFe3(PO4)6,-2.358044896
31966,Na3Li2Fe5(SiO3)10,-2.80040975
31967,Li4Mn2Fe3Te3O16,-1.84511377
31968,Li3Ti(FeO3)2,-2.412957343
31969,Ti3Fe(PO4)6,-2.742040772
31970,V3Fe3(TeO8)2,-1.896302396
31971,Li3V4FeO12,-2.328431724
31972,Li4Ti4Mn4FeO18,-2.593064632
31973,Li3Mn5FeO12,-2.056625113
31974,VFe3(PO4)6,-2.279606085
31975,Fe2Sn(PO4)3,-2.375537434
31976,Li4V5(Fe2O9)2,-2.226746804
31977,LiFe(Si2O5)3,-2.836174182
31978,Li3V4FeO8,-2.270985814
31979,NbFe3(PO4)6,-2.381516673
31980,Mn3Fe3(SbO8)2,-1.752889363
31981,TiFe2Ni3(PO4)6,-2.271458438
31982,TiFe3Sb2(PO4)6,-2.50813616
31983,Li8Fe7(PO4)8,-2.521031942
31984,Mn3FeSn2(PO4)6,-2.408989587
31985,Li4Fe(TeO4)3,-1.842967773
31986,Li2MnV4FeO12,-2.318908231
31987,Li5V3(FeO5)2,-2.267291935
31988,FeSb3(PO4)4,-2.301033671
31989,Mn2Fe(PO4)3,-2.360672311
31990,Ti3FeSb2(PO4)6,-2.693349061
31991,Li4V5Fe3O16,-2.285935081
31992,Li2V3(FeO6)2,-2.191424099
31993,Ti3MnFe2(PO4)6,-2.827392163
31994,Li2FeWO6,-2.039985868
31995,Ti3Mn2Fe(PO4)6,-2.859332414
31996,Li9Fe7(PO4)12,-2.402742414
31997,Li4Fe(WO4)3,-2.236473162
31998,Li4Ti5Fe3O16,-2.852331495
31999,Li5Mn2Fe17O32,-1.919350358
32000,Li4V2Fe3Sb3O16,-2.054990728
32001,Li3Fe2SbO6,-1.969752826
32002,Mn7Fe(PO4)12,-2.201712812
32003,Li3Mn2FeO6,-1.97554923
32004,Ti2Fe(PO4)3,-2.893871022
32005,Ti3NbFe2(PO4)6,-2.820259268
32006,Ti3FeNi2(PO4)6,-2.701963902
32007,Li4Fe3(SiO4)3,-2.524104866
32008,Li2FeH8(SO6)2,-1.787086678
32009,Li3Fe4(Si3O10)2,-2.632736067
32010,SrLiLa7Fe3O16,-3.180889573
32011,LiFeH12(SO7)2,-1.655984771
32012,Li4Fe3SbO8,-2.043328836
32013,LiFe3(SiO4)2,-2.467848814
32014,Li4FeSb(TeO6)2,-1.920828761
32015,Li4V3FeO10,-2.359828927
32016,LiFe2Si2O7,-2.597791556
32017,Li4V3Fe2Ni3O16,-1.910773521
32018,VFe5(PO4)6,-2.396884414
32019,Li3Fe3(WO6)2,-2.093202025
32020,MnFe2(PO4)3,-2.400061208
32021,Li3Fe2(P2O7)2,-2.573174863
32022,Fe2Sb(PO4)3,-2.382750444
32023,Li4Fe3Sn3(SbO8)2,-2.055049484
32024,FeTe(PO4)2,-2.250811384
32025,Li4V5(FeO6)2,-2.308902574
32026,FeP6(WO8)3,-2.506996833