id,Composition,FormationEnergy
28480,LaSnF7,-3.613594668
28481,NbF5,-3.376963172
28482,SmF3,-4.259125423
28483,ZnF2,-2.617594081
28484,TeF6,-2.408208599
28485,SbF3,-2.708194387
28486,MgPbF6,-2.885672325
28487,EuGePt,-0.916312474
28488,EuRhO3,-2.218571358
28489,Eu2TeO2,-2.631640579
28490,EuIn2Ni,-0.387173354
28491,ZnPb2F6,-2.656853175
28492,EuTa2O6,-3.476833624
28493,Eu(FeP)2,-0.894111656
28494,Eu2ReO5,-2.815240482
28495,EuPS3,-1.489756061
28496,PuOF,-3.731826546
28497,U2F9,-3.918053275
28498,EuRbO2,-2.535659499
28499,EuYbSi4N7,-1.318286191
28500,PtPbF6,-2.11152039
28501,EuRbS2,-1.846938923
28502,EuGePd,-0.790753274
28503,PbF3,-2.468150387
28504,RhF3,-1.856782745
28505,EuPPd,-1.083250203
28506,EuKNaNbO5,-2.822475346
28507,EuPSe3,-0.924112149
28508,Eu(POs)2,-0.68409911
28509,PdPbF4,-2.109918931
28510,SnPbF4,-2.615958015
28511,Eu(FeP3)4,-0.563644751
28512,EuSbPt,-1.012843294
28513,EuPd3S4,-1.171123926
28514,RbPbF3,-2.768853694
28515,EuInPt,-0.855013095
28516,Eu2SO2,-2.856699713
28517,EuZnSi,-0.493574025
28518,EuIn2Pd,-0.637052345
28519,EuNaTiO4,-3.094365772
28520,Eu(SiRh)2,-0.997511353
28521,Eu3TaO6,-3.243133081
28522,Eu(GeRu)2,-0.554048177
28523,Eu(MnP)2,-0.646617737
28524,EuIn2Rh,-0.560548127
28525,EuNb8O14,-2.854449092
28526,Eu2Si2O7,-3.284426043
28527,KTiF4,-3.518045571
28528,Eu(Ni5P3)2,-0.617134434
28529,TlF,-1.943146673
28530,Eu(SiIr)2,-0.954343545
28531,EuKGeS4,-1.458883873
28532,Eu(In4Rh)2,-0.365618594
28533,EuIn4Pd,-0.488322038
28534,EuSnPd,-0.817122367
28535,YbF3,-3.437710352
28536,Eu(ZnSi)2,-0.356510263
28537,EuTiO3,-3.558890529
28538,EuInPd,-0.718594638
28539,EuOF,-3.563294179
28540,Eu3RuO7,-2.664153937
28541,EuScO3,-3.535534721
28542,Eu2SiS4,-1.905972356
28543,EuYSi4N7,-1.443456524
28544,OsF6,-2.093727153
28545,EuSn2Ir,-0.594436828
28546,UF6,-3.709686322
28547,Eu2Si3Pd,-0.739848747
28548,Eu(PRu)2,-0.968706378
28549,Eu2Ge2O7,-2.650624
28550,XeF2,-0.793045681
28551,PbIF,-1.669838367
28552,SrIF,-3.01157968
28553,XeF4,-0.876219871
28554,IF5,-1.989500918
28555,SbIF5,-2.297175928
28556,YF3,-4.448778319
28557,IrF3,-1.610587281
28558,TiF3,-3.691374134
28559,PbF2,-2.683040096
28560,Eu2VO4,-3.065829355
28561,TlF3,-2.119469072
28562,SnF4,-2.729606859
28563,Y7(O2F3)3,-4.208832399
28564,KTh6F25,-4.438775442
28565,RbTlF4,-2.520338183
28566,KSb4F13,-2.778516464
28567,Sb2IF15,-2.409557253
28568,Sb2I2F11,-2.281629654
28569,SbXeF9,-1.819268442
28570,Sb2XeF14,-2.097206856
28571,Na4Sn3F10,-2.796550611
28572,Nb2SeF14,-3.013410071
28573,NbSeF9,-2.812145116
28574,Ge5F12,-2.518563433
28575,KSb2F7,-2.829593897
28576,K5ThF9,-3.540281811
28577,LiUF5,-3.757664352
28578,NbSbF10,-3.002301224
28579,Sb2TeF14,-2.594102457
28580,Na3PaF8,-3.673113185
28581,K3TlF6,-2.73336795
28582,K3InF6,-3.021049409
28583,NaSb3F10,-2.774393213
28584,Li3ThF7,-3.584154231
28585,XeIF7,-1.605847599
28586,NaHF2,-2.529061096
28587,SbI5F6,-1.574552893
28588,Na2SbF5,-2.901210928
28589,U(OF)2,-3.68944257
28590,IF7,-1.715116245
28591,Sb2F7,-2.701787125
28592,RbPaF6,-3.887348203
28593,Pb4IF7,-2.424057451
28594,NbXeF11,-1.996501134
28595,K2PdF4,-2.440125776
28596,Sb4F15,-2.690431399
28597,TiF2,-3.02125793
28598,Na3Sb5F18,-2.805251262
28599,Ge(SF6)2,-2.361318844
28600,Sb11F43,-2.68478316
28601,NbHg3F6,-2.358484042
28602,SnF2,-2.586583657
28603,Sb(IF3)2,-2.07311736
28604,KSc2F7,-4.082705898
28605,KI3F16,-2.127978888
28606,UF4,-3.973482715
28607,KYF4,-4.025985096
28608,KPd2F5,-1.897392874
28609,KSnF3,-2.814326625
28610,KScF4,-3.936370707
28611,PrZr3F15,-4.128243391
28612,Sr4Zn3F14,-3.534398047
28613,OsO3F2,-1.732437554
28614,TiF4,-3.708391535
28615,ThTl3F7,-3.163335467
28616,Li3Zr4F19,-3.86220773
28617,ThZr2F12,-4.199369122
28618,ThZrF8,-4.28459181
28619,Sr5Zr3F22,-4.180344005
28620,KTe2F9,-2.646812801
28621,SeF4,-2.091774616
28622,TePbF6,-2.591292703
28623,ZrPb3F10,-3.188859569
28624,NaSbF4,-2.854420065
28625,TlSbF4,-2.520518728
28626,I2(OF2)3,-1.476788971
28627,NaTeF5,-2.702752423
28628,Sb7F29,-2.668170831
28629,KY3F10,-4.286523129
28630,Ge7F16,-2.487230546
28631,Eu2KI5,-1.578842122
28632,Tb3KF12,-3.746996325
28633,IF3,-1.69485521
28634,TlTeF5,-2.435298907
28635,SbXe2F9,-1.738309657
28636,IO2F,-1.151138982
28637,KrF2,-0.376398077
28638,SbKrF7,-1.892842151
28639,SbKr3F11,-1.282794972
28640,TbRb2F6,-3.384055852
28641,SbIF10,-2.29730079
28642,ZrTlF5,-3.510638321
28643,KHo2F7,-4.243764274
28644,HfF4,-4.150294283
28645,ThF4,-4.522498559
28646,Hg4OF6,-1.540979383
28647,Eu2Te4O11,-2.055102418
28648,EuPO4,-3.122174833
28649,NaTh2F9,-4.270239113
28650,Sm2F,-1.785426305
28651,SF4,-1.714909178
28652,Pr3NF6,-3.785236547
28653,Eu(NiGe)2,-0.571806351
28654,K2SbF5,-2.941040272
28655,TaO2F,-3.355256636
28656,NaYF4,-3.991546122
28657,PbF4,-2.220646355
28658,Eu(LuS2)2,-2.39544258
28659,ZrF4,-3.892284921
28660,NaNdF4,-3.969972186
28661,Zr3InF15,-3.783883441
28662,NdOF,-4.126000474
28663,LaOF,-4.220552925
28664,Na3UF7,-3.445744078
28665,HgPbF6,-2.085015097
28666,Sr4Lu3F17,-4.39323522
28667,PrOF,-4.100356066
28668,Na2PdF4,-2.385839195
28669,Eu(Mo3S4)2,-1.243443359
28670,Eu(NdSe2)2,-1.939706995
28671,SnHgF6,-2.432047948
28672,LiYF4,-4.058676394
28673,Eu(NiP)2,-0.88444303
28674,Eu(NdS2)2,-2.47325385
28675,HfTiF6,-2.94115759
28676,GdSF,-3.352786488
28677,K2PtF6,-2.453040754
28678,EuTl2Pd,-0.438806161
28679,Eu(YS2)2,-2.453730027
28680,SmSF,-3.384998612
28681,K2TiF6,-3.561635133
28682,K2TaF7,-3.536780424
28683,PrSF,-3.376573712
28684,Li2ZrF6,-3.699977882
28685,Na3ScF6,-3.544363399
28686,TbLi2F6,-3.406905289
28687,EuNaTiNbO6F,-3.229013291
28688,TbK2F6,-3.391536012
28689,KF,-2.956092243
28690,KTeF5,-2.758532114
28691,Nb2F5,-3.016985635
28692,ScOF,-4.145745162
28693,K2UF6,-3.615132795
28694,K2NbF7,-3.397390897
28695,Eu(SiNi)2,-0.663668445
28696,Na2ThF6,-3.866223307
28697,Tl2SiF6,-2.959180364
28698,Eu3RbF10,-3.728258644
28699,KU2F9,-3.860102712
28700,OsOF5,-2.024715882
28701,Eu3Sn2S7,-1.641111471
28702,Eu2SiO4,-3.346999454
28703,SrPbF6,-2.823038153
28704,NpF4,-3.826142972
28705,TbLi4F8,-3.329935495
28706,TiSn6F16,-2.856840692
28707,EuVO4,-2.833521323
28708,Eu2Sn2O7,-2.68083368
28709,PtF6,-1.474948891
28710,EuSr3RhO6,-2.751352399
28711,Eu2GeSe4,-1.229723068
28712,Eu2Ti2O7,-3.417846717
28713,SrZnF4,-3.435833292
28714,KSbF4,-2.897997114
28715,Eu3NbO7,-3.207545814
28716,YZr3F15,-4.135431322
28717,Zr3TlF15,-3.626642688
28718,GdZr3F15,-4.125075571
28719,Rb16Sn16F47,-2.755393537
28720,Sr2NF,-2.068016464
28721,YbZr3F15,-3.909575267
28722,Nd6F17,-4.340372386
28723,LuZr3F15,-4.144271259
28724,EuZr3F15,-3.989902882
28725,LaSF,-3.489936493
28726,RhF5,-1.700898336
28727,Eu2(WO4)3,-1.896878539
28728,RuF5,-2.036892718
28729,OsF5,-2.067736903
28730,TlPF6,-2.836319918
28731,PtF5,-1.522588038
28732,EuLiH3,-0.600127286
28733,ZrPb2F8,-3.31215375
28734,RbMgF3,-3.532620991
28735,KSbF6,-2.926916122
28736,Sb2N5F11,-1.794393239
28737,Eu2SO6,-2.81523448
28738,EuTl(MoO4)2,-1.842043318
28739,Eu2(Ga3Ir)3,-0.593323344
28740,Eu(TmSe2)2,-1.921268256
28741,K3MoF6,-2.986724148
28742,MoF3,-2.84817888
28743,Rb2IrF6,-2.494343056
28744,PrZr2F11,-4.171807508
28745,FeSnF6,-2.704649821
28746,VF4,-3.022378216
28747,ZrFeF6,-3.40587637
28748,WF6,-2.823597044
28749,MnSb2F12,-2.74851653
28750,Eu3K9Si12(O16F)2,-3.094914187
28751,Sn2IF3,-2.065858276
28752,SrTaF7,-3.879869943
28753,NaVF3,-2.914864051
28754,K3WF6,-2.86462961
28755,RbTh3F13,-4.37399892
28756,EuLi(PO3)4,-2.810375117
28757,MoF5,-2.71196587
28758,SrNiF6,-2.57045529
28759,LuSF,-3.33798088
28760,P4PtF12,-2.633169764
28761,VF2,-3.003867089
28762,EuKPdO3,-1.164608706
28763,Li2MoF6,-3.032283541
28764,Eu(IO3)3,-1.330453274
28765,YSeF,-2.928104439
28766,Ga3Pb5F19,-2.836513156
28767,FeF3,-2.773532898
28768,Rb2NiF6,-2.356050172
28769,RbVF3,-3.047145346
28770,SbF4,-2.681271027
28771,RbNiF3,-2.513101585
28772,RbNi2F6,-2.224272176
28773,MnF3,-2.781373876
28774,MnF2,-2.983327216
28775,Na3VF6,-3.138617817
28776,RbTeF5,-2.757864473
28777,EuRb(SO4)2,-2.501952084
28778,FeF2,-2.737434431
28779,NbVF6,-3.178106675
28780,Os2O3F7,-1.923645622
28781,TaPbF7,-3.3430615
28782,KVF3,-3.055122922
28783,MoF6,-2.660088659
28784,RbSb2F7,-2.83500327
28785,Fe2Pb3F12,-2.747769864
28786,K5V3F14,-3.197779923
28787,MnPtF6,-2.218478777
28788,ZrVF6,-3.694383372
28789,OsO2F3,-1.85273888
28790,HfVF6,-3.793888255
28791,RbLu3F10,-4.343552231
28792,Eu5Si3O12F,-3.501485646
28793,Eu2I2O,-2.24297559
28794,Yb2KF7,-3.328593395
28795,MnSnF6,-2.93228736
28796,VF5,-2.827321898
28797,NiPtF6,-1.860628106
28798,NbFeF6,-2.964784957
28799,OsOF4,-1.955383935
28800,Yb3(SF2)2,-3.476649361
28801,Na5Ga3F14,-3.034124475
28802,SrFeF5,-3.426216533
28803,SrVF5,-3.675858423
28804,Sb2(KrF4)5,-1.383931797
28805,NaVF4,-3.194785407
28806,WSF4,-2.268335308
28807,IOF3,-1.667043258
28808,NiPbF6,-2.229554501
28809,LiScF4,-3.906682804
28810,NiF2,-2.130430449
28811,VF3,-3.22822725
28812,NiSnF6,-2.582260926
28813,EuHSO5,-2.376311658
28814,VXe2F17,-1.423129206
28815,EuSi2(NO)2,-2.373913247
28816,XeF6,-0.813179572
28817,RbIn3F10,-2.90368294
28818,IrF6,-1.839359118
28819,KVF4,-3.240951894
28820,XeF3,-0.850311127
28821,TaF5,-3.596162763
28822,Rb2NiF4,-2.643803888
28823,NiF3,-1.678108053
28824,LiLuF4,-4.096572183
28825,Eu2KSi4O10F,-3.320591826
28826,MnF4,-2.406315479
28827,TeF4,-2.487541845
28828,HoF3,-4.487262524
28829,Eu3OsO7,-2.731733638
28830,EuK3V2O8,-2.575679512
28831,EuKSiS4,-0.892687053
28832,Eu2(MoO4)3,-2.441590723
28833,EuK2Ta5O15,-3.285380563
28834,EuK(MoO4)2,-2.418486248
28835,EuP5O14,-2.712911134
28836,Eu3Fe5O12,-2.355134172
28837,Ni(XeF7)4,-0.915463683
28838,Eu(GeIr)2,-0.685165815
28839,Eu2Re6S11,-1.216735681
28840,NdSF,-3.380652812
28841,Eu6Mo10O39,-2.407402813
28842,Ta2Hg2F11,-3.129758483
28843,Eu3ReO7,-2.96444004
28844,EuGeS3,-1.454985521
28845,Eu2LiSi3,-0.504032644
28846,Eu(PPd)2,-0.892809624
28847,Eu(MnSb)2,-0.208086706
28848,EuNi5P3,-0.743855661
28849,EuZr6(PO4)9,-3.229047478
28850,GaF3,-2.948941703
28851,EuNiGe,-0.574087128
28852,NaSbF6,-2.888162242
28853,NaMoF6,-2.803254425
28854,HXeF7,-1.02137767
28855,Eu2SrFe2O7,-2.652409707
28856,K2NiF6,-2.354782129
28857,Eu2K5Si4O13F,-2.99652734
28858,Eu(ScSe2)2,-1.699780756
28859,EuRbSiS4,-0.876142995
28860,Eu2Ga3Ir,-0.589582967
28861,EuGe2Ir,-0.628699552
28862,EuLiTiO4,-3.162911405
28863,EuLi(SO4)2,-2.367600041
28864,EuMn2O5,-2.386211633
28865,TbKF5,-3.491543587
28866,Eu(HO)3,-1.981402604
28867,EuNaP2O7,-2.915945784
28868,EuKPS4,-1.521341712
28869,Eu2Ge2Se5,-1.023531281
28870,EuK2SiSe5,-1.091430477
28871,EuK2GeSe5,-1.027227369
28872,EuLi2GeS4,-1.554274868
28873,HF,-1.781524152
28874,Eu2SnS4,-1.752447996
28875,Eu3(GaNi)4,-0.460182435
28876,Eu2LiGe3,-0.593856644
28877,Eu2Ru2O7,-2.278214448
28878,Eu(Na5Sn6)2,-0.276666094
28879,EuK(WO4)2,-2.48416177
28880,Yb3KF10,-3.363650772
28881,Eu2Ir2O7,-2.205376161
28882,EuNa(PO3)4,-2.785942176
28883,K2GdF5,-3.745636258
28884,SF6,-2.211808431
28885,ReF7,-2.419825962
28886,Eu(MgH3)2,-0.424629063
28887,EuMgH4,-0.482797778
28888,Eu2H4Pd,-0.616089334
28889,Eu2MgH6,-0.501086697
28890,Eu2(Ga3Rh)3,-0.631334749
28891,Eu(LuSe2)2,-1.907729781
28892,EuTb2Se4,-1.928824491
28893,Eu2GeO5,-2.817733519
28894,Pd(XeF8)2,-1.011722964
28895,EuTlPS4,-1.277693175
28896,USb2F15,-2.815096842
28897,EuK4(PS4)2,-1.424645494
28898,EuLiPS4,-1.48856514
28899,EuPPt,-1.157109328
28900,Eu(MnGe)2,-0.213487092
28901,Eu2Nb4O13,-2.953732759
28902,Tl3SiF7,-2.759964238
28903,Tl5SnF9,-2.282597515
28904,Hg2SbF6,-2.042282135
28905,NdPb7F17,-2.957116798
28906,Eu(SmS2)2,-2.468340127
28907,Eu2Zr2O7,-3.37286085
28908,Y5O4F7,-4.011800396
28909,Os(OF)2,-1.48100921
28910,Eu(GdS2)2,-2.45863024
28911,NdPb8F19,-2.89925979
28912,NdPb4F11,-3.101030437
28913,Eu3Sm3S8,-2.433928191
28914,SrLa5F17,-4.459174751
28915,TaHg2F6,-2.651378551
28916,NbHg2F6,-2.494825318
28917,Sr2LaF7,-4.237894194
28918,NaY2F7,-4.139709254
28919,KNb3F9,-2.795836587
28920,NaHoF4,-4.016447665
28921,La3O2F5,-4.2462164
28922,K3UF3,-2.030849769
28923,NaY3F10,-4.11611879
28924,TlSnF3,-2.363002099
28925,YbNaF4,-3.312919461
28926,Nd2Pb5F16,-3.266377813
28927,EuPaO4,-3.843619778
28928,NdPb6F15,-2.990792127
28929,SbH7F11,-1.985498806
28930,NaHo2F7,-4.046465142
28931,K7Th6F31,-4.115275729
28932,La2PbF8,-3.991666135
28933,EuYb2S4,-1.312608482
28934,EuSrLiTeO6,-2.539646118
28935,TaOF3,-3.250387957
28936,Th10N9F13,-3.261789732
28937,K3Ta4F15,-3.012893986
28938,NaF,-2.957768971
28939,Eu2Si3Ni8,0.635224954
28940,EuRb2Ga(SiO3)4,-3.039929455
28941,Tb4F15,-3.739763093
28942,Na17Pd15F48,-2.15565018
28943,Nd3O2F5,-4.060072557
28944,EuMoO4F,-2.715684489
28945,InF3,-2.862733956
28946,YbRbF3,-3.917298256
28947,Eu(Ni3S4)2,-0.894871492
28948,Eu6Mg7H26,-0.453496704
28949,Eu4Mo4O11,-2.138404511
28950,YbOF,-3.479233522
28951,Eu2Mo5O18,-1.913155677
28952,Sr5Fe3F19,-3.545683449
28953,HgF,-1.431964073
28954,Sb2S19F12,-1.522345189
28955,ZrPbF6,-3.56590819
28956,Fe3Pb8F24,-2.726952995
28957,RbHgF3,-2.25192331
28958,KHgF3,-2.224056869
28959,Eu2SeO2,-2.641552274
28960,Eu4O3F7,-3.485012608
28961,Ta3O7F,-3.39733234
28962,Nd4O3F7,-4.05157119
28963,EuHfO3,-3.732094593
28964,EuTlO2,-0.989407152
28965,SbTe2F6,-2.153980146
28966,Eu(ReO4)2,-2.531124929
28967,EuSeO3,-2.259600007
28968,EuNbO3,-3.119347704
28969,Eu2K2O3,-2.332809687
28970,EuSrO2,-3.088357452
28971,EuZr4O9,-3.673834545
28972,EuSeO4,-2.086825377
28973,Ta3(OF)5,-3.392844459
28974,Eu2Pb2O7,-2.163922962
28975,RuF3,-1.903093855
28976,KNbF6,-3.439172565
28977,Y6O5F8,-4.289668952
28978,Os(OF2)2,-1.866030257
28979,Hg3(SF)2,-1.080433148
28980,Tl16O15F17,-1.59653036
28981,EuK3Si3(HO5)2,-2.748519872
28982,GeF2,-2.408621652
28983,Mg3NF3,-2.809325768
28984,Eu6WO12,-3.040942357
28985,Rb3TlF6,-2.650661167
28986,V2F7,-3.111784458
28987,Mn2F7,-2.557518661
28988,Mn3F8,-2.760826447
28989,V5F11,-2.984672746
28990,Mn3F10,-2.561323555
28991,Mn7F18,-2.81817983
28992,Mn2F5,-2.800468915
28993,V6F13,-3.008458931
28994,V3F10,-3.052288277
28995,EuKO2,-2.597539799
28996,EuYO2,-3.170927972
28997,Eu4SrO5,-3.107577949
28998,EuVO3,-2.925342668
28999,Eu2NiO4,-2.443630076
29000,Eu3WO6,-2.817978764
29001,EuZrO3,-3.55793996
29002,Eu2Y2O5,-3.503788018
29003,LaSeF,-3.160549759
29004,EuH4S2NO8,-1.92004351
29005,EuLiPSe4,-0.88897709
29006,EuNaO2,-2.605581956
29007,MgPdF6,-2.449938304
29008,K2PdF6,-2.405233324
29009,PuF3,-3.943069684
29010,Na2SnF6,-3.015603968
29011,HgF2,-1.726025674
29012,Rb2PtF6,-2.46007966
29013,ThNF,-3.129016343
29014,SnF3,-2.774447648
29015,TaF3,-2.793759307
29016,TlSbF6,-2.64832145
29017,K5Ti3F14,-3.451486318
29018,PF5,-2.942545936
29019,PdPtF6,-1.616662408
29020,Eu(PRh)2,-0.980691774
29021,EuMgHg2,-0.41642225
29022,EuSnO3,-2.553876692
29023,PmF3,-4.238126754
29024,Eu2Fe2O5,-2.489635104
29025,Na3HfF8,-3.281449416
29026,Na3UF8,-3.49457335
29027,EuGeO3,-2.603437033
29028,TmF3,-4.143031301
29029,YbF2,-4.489723811
29030,EuSiO3,-3.079231336
29031,EuRuO3,-2.157991589
29032,K3TaF8,-3.437809067
29033,EuMgGe,-0.563623248
29034,Eu2HgGe,-0.585071041
29035,TcF3,-1.728084501
29036,EuLi2Sn,-0.477462074
29037,Eu2SiO5,-3.17892315
29038,RbF2,-2.129427882
29039,KF3,-1.658054762
29040,Mn7F16,-2.868120188
29041,Rb2MgF4,-3.36631964
29042,LiInF4,-2.982125897
29043,PtF4,-1.58552278
29044,Rb2HgF4,-2.450360125
29045,Rb2NbF6,-3.256471103
29046,KPdF3,-2.133096146
29047,Li4ZrF8,-3.542456032
29048,Eu(GaSb)2,-0.205010747
29049,SmMgF4,-3.58610732
29050,Si3F,-0.306886104
29051,EuMgO3,-2.546996011
29052,GdF3,-4.128510698
29053,Hg3F,-0.548269589
29054,OF3,-0.159229162
29055,Rh3F,0.087945853
29056,RuF4,-1.998081502
29057,Re3F,0.262894672
29058,EuNiGe3,-0.518321736
29059,RbF3,-1.483279362
29060,EuLaZn2,1.169609922
29061,EuPtO3,-1.751847526
29062,KTi2F7,-3.554992709
29063,EuSbO3,-2.317598242
29064,NaF3,-1.456680076
29065,Ge3F,-0.476598633
29066,KF2,-2.137439142
29067,Tl3F,-0.712263467
29068,YbF,-3.029386968
29069,GeF4,-2.709527098
29070,Eu2MgSi2O7,-3.356628327
29071,H3F2,-1.479425994
29072,TlFeF3,-2.452434932
29073,RbSnF3,-2.761731528
29074,MnInF3,-2.53186475
29075,RbTlF3,-2.456494461
29076,TlHgF3,-1.84451853
29077,TlGeF3,-2.323425094
29078,MgTlF3,-3.102913139
29079,TlZnF3,-2.384566616
29080,TlPdF3,-1.711480022
29081,MoF4,-2.723455397
29082,MgMoF6,-3.239767945
29083,SbF5,-2.234846895
29084,FeF4,-2.069339949
29085,WF5,-2.725981478
29086,MgTiF4,-3.353454581
29087,MgSnF4,-3.173221823
29088,MgMoF5,-3.226935757
29089,ZnFeF5,-2.666296964
29090,MgWF5,-3.061050987
29091,ZnWF5,-2.534439844
29092,MgMnF5,-3.209015007
29093,MgNiF4,-2.831438352
29094,ZnSbF5,-2.599459713
29095,VZnF5,-2.928900675
29096,MgVF5,-3.462109869
29097,MnZnF5,-2.680907643
29098,ZnWF4,-1.897865303
29099,MgSbF5,-3.1650658
29100,WF4,-2.63157292
29101,ZnSbF6,-2.593675882
29102,MgTiF6,-3.822542271
29103,VZnF6,-2.835901772
29104,ZnMoF6,-2.757984601
29105,MgVF6,-3.314992524
29106,YTiF5,-3.686293444
29107,MgSnF6,-3.251989693
29108,TiZnF6,-3.343818495
29109,MgSbF6,-3.041122873
29110,YSnF5,-3.567931386
29111,TiZnF5,-3.160941301
29112,MgTiF5,-3.690992575
29113,ZnWF6,-2.731682281
29114,ZnSnF5,-2.576096129
29115,MnZnF6,-2.559617729
29116,MgMnF6,-3.031042671
29117,MgWF6,-3.217329855
29118,MgSnF5,-3.058148059
29119,NiF4,-1.206012464
29120,YFeF5,-3.58480787
29121,MgFeF4,-3.169604987
29122,ZnMoF5,-2.704340388
29123,TiZnF4,-2.772880809
29124,MgFeF5,-3.197037924
29125,ZnSnF4,-2.581207615
29126,YMnF5,-3.696298675
29127,MgWF4,-2.62670262
29128,MgMnF4,-3.32842204
29129,YWF5,-3.10470138
29130,MnZnF4,-2.735446838
29131,YNiF5,-3.246172537
29132,ZnNiF4,-2.223857322
29133,ZnFeF4,-2.585297693
29134,YVF5,-3.656239426
29135,VZnF4,-2.7376676
29136,MgVF4,-3.331279945
29137,YTi3F15,-3.668844588
29138,YSn3F15,-2.948852268
29139,YSb3F15,-2.844666875
29140,Y(WF5)3,-2.922513289
29141,YMn3F15,-2.615985635
29142,YMo3F15,-2.983365896
29143,TiSF,-2.452681907
29144,Zn(NF2)2,-0.53248079
29145,Rb2ZnF4,-2.859945988
29146,MgZrF6,-4.012548877
29147,ZrZnF6,-3.5270398
29148,NaPF6,-3.065120338
29149,HoSF,-3.373588995
29150,LiRhF6,-2.149251658
29151,Rb3TiF7,-3.441416205
29152,NaMgF3,-3.485829089
29153,K2SiF6,-3.447839087
29154,K2ZrF6,-3.682122247
29155,K3SiF7,-3.355875133
29156,Rb2ZrF6,-3.683431887
29157,Rb2PdF6,-2.420942196
29158,TbOF,-4.285839136
29159,RhPb2F7,-2.389592907
29160,Li3GaF6,-3.133402628
29161,ZnRhF6,-2.126059432
29162,HgRhF6,-1.808592301
29163,K2SmF5,-3.762626527
29164,GdPtF7,-2.908437182
29165,SmPtF7,-2.934619603
29166,KSmF4,-4.014815707
29167,Na2SiF6,-3.336821894
29168,Na2TiF6,-3.477305762
29169,KPF6,-3.111477312
29170,Rh(OF3)2,-1.46390643
29171,Li3TiF6,-3.372886101
29172,Rb2RhF6,-2.511735042
29173,H4NF,-1.176853694
29174,H4OF2,-1.7167435
29175,KHF2,-2.555136393
29176,LiHF2,-2.59289388
29177,InOF,-2.407455952
29178,KTlF4,-2.520090833
29179,NaTiF4,-3.472023534
29180,RuXeF7,-1.653677314
29181,Na2ZrF6,-3.653162171
29182,Rb5Zr4F21,-3.792820143
29183,Xe(OF)2,0.055937782
29184,Pb2OF2,-2.229219432
29185,UTlF5,-3.456368631
29186,Na5Zr2F13,-3.473822325
29187,TcOF4,-2.337562992
29188,Sn2OF2,-2.222417198
29189,Te5(O2F11)2,-2.226261244
29190,K2ReF8,-2.808630339
29191,KIn2F7,-2.932801553
29192,H3OF,-1.639460216
29193,NaNp2F9,-3.699680948
29194,Np(OF)2,-3.419963084
29195,H6OF4,-1.779890626
29196,ReNF6,-1.961435439
29197,H7NF4,-1.566968567
29198,H11NF8,-1.69078962
29199,SOF2,-2.134853443
29200,SiH3F,-0.936587398
29201,RbSF5,-2.437521508
29202,S2O5F2,-1.966382003
29203,TcO2F3,-2.183186766
29204,Sn4OF6,-2.421074894
29205,Te2O3F2,-1.881946091
29206,K2H5F7,-2.313148839
29207,KH3F4,-2.262949146
29208,PHF4,-2.412928411
29209,PH2F3,-1.853828306
29210,Sn2OF5,-2.656906676
29211,RbHF2,-2.542616499
29212,NOF,-0.969068006
29213,RbHfF5,-3.918504219
29214,H5NF2,-1.381352053
29215,K2MgF4,-3.399825359
29216,K3Zn2F7,-2.863945966
29217,PNF2,-2.071343819
29218,Na7Zr6F31,-3.756280474
29219,Na3HfF7,-3.593692777
29220,NbO2F,-3.074066403
29221,NaPF3,-2.224750238
29222,Li2NiF4,-2.740407056
29223,Na3ZrF7,-3.525974914
29224,SmOF,-4.168390846
29225,Na2HF4,-2.330152948
29226,TiOF2,-3.561782099
29227,NaZnF3,-2.785632414
29228,Y3Pb4F17,-3.589014646
29229,LiSbF6,-2.890020837
29230,RbZnF3,-2.813988847
29231,MoOF4,-2.582990207
29232,Mn2O2F9,-2.069658184
29233,S4N5F,-0.096557332
29234,Ru(OF3)2,-1.688534651
29235,La6Zr8F47,-4.137627768
29236,Li2GeF6,-3.035641806
29237,Te7(OF5)6,-2.205301063
29238,Pb5(IF4)2,-2.223507752
29239,Sr2RhF7,-3.304714589
29240,Pt(OF3)2,-1.287640159
29241,K2PaF7,-3.827280607