id,Composition,FormationEnergy
8939,Ba5(GaS4)2,-2.018742222
8940,Ba3In2F12,-3.594115567
8941,BaGe2O5,-2.458185272
8942,Ba3GaSb3,-0.90416769
8943,Ba7Ga4Sb9,-0.769842043
8944,BaP3Pt2,-0.905781935
8945,Ba2Ta15O32,-3.228877485
8946,Ba(ClO3)2,-1.394940145
8947,Ba(BrO3)2,-1.177304825
8948,BaH8O5,-1.664729809
8949,Ba2Cu3P4,-0.59472454
8950,Ba2Bi2O5,-2.302201086
8951,Ba2Nb15O32,-3.002966385
8952,Ba8Ni6N7,-0.580085453
8953,BaGe2S5,-1.248790462
8954,Ba2P3Pd,-0.914076931
8955,Ba(P2Pd)2,-0.669402407
8956,BaCN2,-0.927017708
8957,Ba5(RuO5)2,-2.45379081
8958,BaReH9,-0.39888856
8959,Ba2Ti13O22,-3.381053397
8960,BaNd2O4,-3.528432315
8961,Ba5(TiN3)2,-1.14818139
8962,Ba(NiP2)2,-0.656550053
8963,Ba(PdS2)2,-1.220890307
8964,Ba(YS2)2,-2.522853108
8965,Ba5(SiN3)2,-1.016167207
8966,Ba5CrN5,-0.892458716
8967,Ba2GdCl7,-2.85501335
8968,Ba2(SnSb2)3,-0.417820851
8969,Ba3(GeN)2,-0.69031376
8970,Ba3(SnP2)2,-0.764730382
8971,BaTe2F10,-2.928752718
8972,BaCuN,-0.472509425
8973,BaMnSb2,-0.448834
8974,Ba(MgBi)2,-0.610555614
8975,Ba2Si3O8,-3.392981535
8976,Ba3Si5O13,-3.384010563
8977,Ba3PbO,-1.498457156
8978,Ba3SnO,-1.534559016
8979,BaPt2S3,-1.312420275
8980,Ba4Ti13O30,-3.542504749
8981,Ba4Ga2S7,-1.959382686
8982,Ba3(GaS3)2,-1.881359101
8983,Ba2PdO3,-2.290323674
8984,Ba3(TaS4)2,-1.946803649
8985,Ba2Cu5F14,-2.508729135
8986,BaGdCl5,-2.795542734
8987,EuBa2Cl7,-2.682023563
8988,Ba2Mg3Si4,-0.350184224
8989,Ba(MgSn)2,-0.486423809
8990,BaSi7N10,-1.355102587
8991,Ba5Pt2O9,-2.320430388
8992,Ba2PdF6,-3.310751859
8993,Ba2CoCl6,-2.240666687
8994,Ba2Si3Ni,-0.466988638
8995,Ba(PN2)2,-1.052938757
8996,Ba4I6O,-2.067560196
8997,Ba3Sb2O,-1.613883661
8998,Ba(GaSb)2,-0.52725466
8999,Ba16Nb5N19,-1.02428867
9000,BaCdSb2,-0.605870919
9001,Ba(GeRu)2,-0.471660196
9002,Ba3P4O13,-3.130660688
9003,Ba4Si3Br2,-1.025404334
9004,BaPdCl4,-1.894355661
9005,BaLaI4,-1.623050917
9006,Ba(CuTe)2,-0.727696578
9007,Ba4Ni3Ge20,-0.284621428
9008,Ba4Ge20Pd3,-0.339958575
9009,Ba4Ga2O7,-2.77461778
9010,BaNbO3,-3.188357591
9011,Ba3P3I2,-1.269864519
9012,Ba5P5I3,-1.26260825
9013,Ba(CO)4,-1.505170653
9014,Ba3(LiSn2)4,-0.514750651
9015,BaSi2O5,-3.376354884
9016,BaCdBi2,-0.522815066
9017,BaZnBi2,-0.481794837
9018,Ba(RhPb2)3,-0.25306847
9019,BaSn3Pt,-0.67591083
9020,Ba3CrS5,-1.871309348
9021,Ba3(CrS3)2,-1.791631444
9022,Ba6Mg11F34,-3.964632625
9023,Ba(IO3)2,-1.560112722
9024,Ba6Zn7F26,-3.344855819
9025,BaZrN2,-1.43410674
9026,BaCuBi,-0.538991853
9027,BaZnSi,-0.371071328
9028,BaZnSn,-0.524324858
9029,BaNaBi,-0.768526013
9030,Ba3(SbO3)2,-2.585567473
9031,Ba(TeP2)2,-0.517503719
9032,Ba2SnSe5,-1.218894663
9033,Ba5In4Bi5,-0.654077244
9034,BaSnO3,-2.601554575
9035,BaSO4,-2.833723849
9036,BaTi4O9,-3.529638048
9037,Ba2Cr7O14,-2.418090868
9038,BaCeO3,-3.603252598
9039,BaMn2O8,-1.575828535
9040,BaMn3O6,-2.207896203
9041,BaNi9P5,-0.670661045
9042,Ba3NiO4,-2.330242983
9043,Ba2V3O9,-2.832680572
9044,Ba3Ti3O8,-3.32887251
9045,Ba9Nb10O30,-3.204114018
9046,Ba2SnO4,-2.738237758
9047,Ba(PrSe2)2,-1.929042191
9048,Ba(LaS2)2,-2.532928864
9049,Ba(TlHg)2,-0.320349899
9050,Ba2TiO4,-3.411636217
9051,Ba2NbO,0.311046962
9052,Ba8P5Br,-1.164012025
9053,BaCO3,-2.648773467
9054,Ba(NdS2)2,-2.420101076
9055,BaVS3,-1.769721843
9056,Ba4Y3F17,-4.343591694
9057,BaNbS3,-1.843210299
9058,Ba5Nb4O15,-3.284811132
9059,BaSc2O4,-3.704640462
9060,BaUO3,-3.477311354
9061,BaBi2O5,-1.846396235
9062,Ba4Nd3F17,-4.337622909
9063,Ba(NdSe2)2,-1.91931008
9064,BaUS3,-2.113242693
9065,Ba(PrS2)2,-2.424554558
9066,Ba(LaSe2)2,-2.040425847
9067,BaSiN2,-1.316440231
9068,Ba3Pt2O7,-2.0430002
9069,Ba(GaTe2)2,-0.783569357
9070,Ba2ZrS4,-2.268964728
9071,Ba4Bi3F17,-3.525802203
9072,Ba(CeS2)2,-2.351720514
9073,Ba3(PO4)2,-3.310016267
9074,Ba2CuF6,-3.403580547
9075,BaZnF4,-3.409231851
9076,Ba3Re2O9,-2.70262263
9077,BaHgO2,-1.970855358
9078,BaY2O4,-3.670808687
9079,BaCu3O4,-1.464083549
9080,BaTaS3,-1.885202168
9081,BaPdS2,-1.553798741
9082,Ba(CuS)2,-1.178444702
9083,BaIrO3,-1.979357882
9084,BaGa4S7,-1.358545554
9085,Ba(NO3)2,-1.686542396
9086,Ba(PRu)2,-0.945881697
9087,Ba2CoS3,-1.757594548
9088,Ba4Nb14O23,-2.821141506
9089,Ba(SbSe2)2,-0.799353354
9090,Ba(FeP)2,-0.815864969
9091,BaCeN2,-1.231148107
9092,BaFe2Se3,-0.803884548
9093,Ba2WO5,-2.874501479
9094,Ba(GaPt)2,-0.817936442
9095,BaPuO3,-3.427964741
9096,BaNb7O9,-2.586867864
9097,Ba6Na16N,-0.066700387
9098,Ba2ReO5,-2.757101592
9099,Ba3V4O13,-2.836917747
9100,BaZr2F10,-4.117145321
9101,BaNb4O6,-2.73758476
9102,BaCoN,-0.528450697
9103,Ba3FeO5,-2.548756499
9104,Ba5Mg18Si13,-0.286657109
9105,Ba6Mn5O16,-2.530030504
9106,BaV13O18,-2.401946523
9107,BaZnPb,-0.413287648
9108,Ba2(IrO3)3,-1.876901988
9109,Ba2Co9O14,-1.619828786
9110,Ba6Cu34S27,-0.785685397
9111,Ba4Ti4O9,-3.067768546
9112,Ba23U8O48,-3.295545156
9113,Ba8Nb7S24,-1.834956448
9114,Ba3Ti20O40,-3.49703117
9115,K2Ba3Sb4,-0.690148735
9116,Ba16Bi16O45,-2.19176654
9117,Ba14MnSb11,-0.993496765
9118,Ba3Nb16O23,-2.702508307
9119,BaMn2O3,-2.28467307
9120,Ba2MnO3,-2.575593924
9121,Ba2SnS4,-1.79420133
9122,BaZrS3,-2.207598477
9123,Ba2GeS4,-1.814307443
9124,Ba3SnP3,-0.874801181
9125,Ba2Mg3F10,-3.978508523
9126,Ba6Co25S27,-1.02799961
9127,BaGaF5,-3.542863037
9128,Ba3GaP3,-0.949290129
9129,CsBa2Br5,-2.144227169
9130,Ba9(NbN6)2,-0.886361119
9131,Ba2Zn7F18,-2.977305211
9132,Ba3Nb2O8,-3.275648842
9133,Ba3Lu4O9,-3.663681314
9134,BaTeO3,-2.369633461
9135,Ba8(CoO3)7,-2.138334473
9136,Ba2I2O,-2.329404987
9137,Ba2Fe3F10,-3.307351091
9138,Ba2Ni3F10,-2.956169053
9139,Ba3Zr2S7,-2.23684703
9140,Ba3(PS4)2,-1.669443728
9141,Ba9(RhO3)8,-2.115623493
9142,BaFeF4,-3.456538024
9143,BaFeF5,-3.422527396
9144,Ba6Hf5S16,-2.242485499
9145,BaSb2F12,-3.00647733
9146,BaTcO3,-2.478351855
9147,Ba4Br6O,-2.416911356
9148,Ba9Fe4S15,-1.820079244
9149,Ba2CoF6,-3.534440928
9150,BaNiF4,-3.161470274
9151,Ba3Sb4O,-1.269197309
9152,BaTi2O5,-3.527687966
9153,Ba2NiF6,-3.476564913
9154,Ba3Sn2S7,-1.679537627
9155,Ba6Ti17O40,-3.534043971
9156,BaZrF6,-4.147992575
9157,BaTeF6,-3.162429625
9158,BaMnF4,-3.58041248
9159,Ba5Hf4S13,-2.248743063
9160,BaCoF4,-3.286492918
9161,BaH6F8,-2.404827242
9162,BaCr4S7,-1.315193267
9163,Ba2ZnS3,-1.992070927
9164,BaSiF6,-3.860476191
9165,BaCrF6,-3.28410701
9166,Ba11(OsO6)4,-2.544088086
9167,BaMnF5,-3.430022643
9168,Ba12Cl5F19,-3.924312851
9169,BaTa2O6,-3.459972096
9170,Ba8Sb6S17,-1.620129685
9171,BaCrF5,-3.584762213
9172,Ba(MnSb)2,-0.308023727
9173,Ba3Fe3Se7,-1.059264803
9174,Ba14MnBi11,-0.874160039
9175,Ba9Sm6Cl34,-2.788856005
9176,Ba(FeBr4)2,-0.998156884
9177,Ba(CuP2)2,-0.467520237
9178,Ba2Cd3Bi4,-0.475244379
9179,Ba3GeI2,-1.216233609
9180,Ba5Ga5Sn,-0.4892106
9181,Ba19Na29Li13,-0.009666812
9182,Ba7Sn3Se13,-1.417481791
9183,BaN3Cl,-1.253080807
9184,Ba3SiI2,-1.130075341
9185,Ba11(CdSb2)6,-0.841187395
9186,Ba6Pr3I19,-1.653039334
9187,BaThBr6,-1.867551436
9188,Ba3(CdSb2)2,-0.774296332
9189,Ba3(PSe4)2,-1.086766822
9190,YbBaSn3,-0.623838549
9191,Ba(BiPd)2,-0.645891754
9192,Ba2In2Se5,-1.262819169
9193,Ba2ScCl7,-2.771468281
9194,BaUI6,-1.197873076
9195,BaIn2O4,-2.280385926
9196,BaCuSn2,-0.440152257
9197,Ba(Fe2O3)9,-1.81505505
9198,Ba2U2O7,-3.688658899
9199,Ba5(FeS2)9,-1.30339143
9200,Ba2SnTe5,-0.971786251
9201,BaCaSn3,-0.608978212
9202,Ba2SiS4,-1.991198897
9203,Ba2ZrF8,-4.182069873
9204,Ba6Ge5N2,-0.641504142
9205,RbBa2N15,-0.484577699
9206,Ba5Ga5Pb,-0.47058497
9207,Ba2LiN,-0.359691332
9208,Ba11(Cd4Bi7)2,-0.659356832
9209,Ba5(InSb3)2,-0.83071026
9210,Ba(Cu5P2)2,-0.221880592
9211,Ba5Fe4S11,-1.555452291
9212,Ba15(ZrSe3)14,-1.663504436
9213,TbBaF6,-3.8287681
9214,Ba(H8O5)2,-1.466167816
9215,Ba(HO)2,-2.102664414
9216,Ba3MoN4,-1.020405099
9217,Ba3FeS5,-1.849208885
9218,BaNbTc2,0.973936133
9219,BaScIr,0.916379003
9220,BaYSc,0.8294581
9221,BaMgOs2,1.319705584
9222,BaHfMg2,0.569304519
9223,BaSiTc2,1.00468738
9224,KBa2Re,1.270988264
9225,BaBeGa,0.854941662
9226,BaHfMo,1.201842308
9227,BaBe2Te,0.52018416
9228,BaZrNi,0.677569373
9229,Ba2BeGa,0.393729351
9230,BaRe2Sn,1.310496502
9231,BaIn4Ir,-0.355643546
9232,Ba(Ge3Pt)4,-0.367456645
9233,Ba2(InP)5,-0.512090018
9234,Ba3(H6Ir)2,-0.651931227
9235,Ba2H6Pt,-0.641675676
9236,Ba2MgH6,-0.532385629
9237,Ba5(Ga3H)2,-0.498699114
9238,BaMgH4,-0.480120141
9239,Ba39Li80N9,-0.067218896
9240,Ba2ErCl7,-2.849892015
9241,Ba2Fe6O11,-2.144920692
9242,BaNb8O14,-2.7770963
9243,Ba2Fe2O5,-2.395578758
9244,Ba9(TaN6)2,-0.934815186
9245,Ba(C2N3)2,0.200066663
9246,BaMnSi2,-0.142629468
9247,Ba6In5N,-0.488436784
9248,Ba7(Fe3S7)2,-1.602706829
9249,Ba9(NdS6)2,-2.384344846
9250,Ba3Bi2F12,-3.497299197
9251,Ba3PrF9,-4.204324157
9252,Ba3(Ge2C)2,-0.111694286
9253,Ba4Er3F17,-4.358360045
9254,Ba2PrF7,-4.237227539
9255,Ba8Bi2F17,-3.384787263
9256,Ba11(Nb3S14)2,-1.858792626
9257,Ba5(Bi2O3)7,-1.428307495
9258,Yb3Ba4F17,-3.820529834
9259,Ba11(Ta3S13)2,-1.968279383
9260,Ba24In19N11,-0.405735417
9261,Ba15Fe7S25,-1.810823733
9262,Ba19(InN)9,-0.518900777
9263,Ba2In13Ir4,-0.307826695
9264,Ba21(Cd2Sb9)2,-0.977986029
9265,Ba25(Bi5O18)3,-2.308003523
9266,Ba2PPd2,-0.697404926
9267,Ba20Nb19Se60,-1.272156711
9268,Ba6Nb5S17,-1.839119295
9269,BaW6O19,-1.964241926
9270,Ba(SbPd)2,-0.789451678
9271,BaSO2,-2.298271519
9272,Ba2H6Ru,-0.633101734
9273,Ba2H6Os,-0.620304164
9274,Ba6Mg7H26,-0.473916002
9275,Ba8Co7O19,-2.134925883
9276,BaFe15O23,-1.750908692
9277,BaTiS3,-2.046361361
9278,Ba7Cu3H17,-0.490916776
9279,Ba2Mg3H10,-0.452623309
9280,Ba(ZnP)2,-0.648126413
9281,BaNiS2,-1.523394377
9282,Ba2SrI6,-1.746890677
9283,BaSrI4,-1.678358316
9284,Ba3Y2F12,-4.313312418
9285,BaSr2I6,-1.715621861
9286,Ba2YBr7,-2.083688897
9287,BaY3F11,-4.375370821
9288,BaYF5,-4.362490771
9289,Ba2Sr7I18,-1.679521246
9290,Ba4Pb3O10,-2.216625688
9291,Ba2CaI6,-1.685872262
9292,Ba5In5O12,-2.351825346
9293,BaCa2I6,-1.647742931
9294,BaCaI4,-1.671634376
9295,BaLaCl5,-2.816263522
9296,BaYBr5,-1.995434277
9297,Ba2YF7,-4.261912615
9298,BaY3Br11,-1.88265399
9299,BaY2F8,-4.331905065
9300,BaY2Br8,-1.902821306
9301,Ba3Hf2O7,-3.657849938
9302,BaYI5,-1.517606384
9303,Ba(LaI4)2,-1.541642555
9304,Ba2HfO4,-3.55052365
9305,EuBaO2,-2.945206687
9306,BaLaBr5,-2.07025184
9307,BaMgGe,-0.535569303
9308,BaSr3I8,-1.700408928
9309,BaLaI5,-1.599371796
9310,BaYCl5,-2.782443924
9311,Ba2YCl7,-2.780616362
9312,Ba2Sc2O5,-3.430861413
9313,BaLa2Br8,-2.015608106
9314,Ba6HfO8,-3.104346377
9315,Ba2LaI7,-1.636077879
9316,Ba4HfO6,-3.226363882
9317,Ba2Hf7O16,-3.899861365
9318,Ba3SrI8,-1.770125383
9319,Ba2LaCl7,-2.869300246
9320,BaTi7O14,-3.496782473
9321,Ba13Nb14O42,-3.201681287
9322,BaTi14O28,-3.483615982
9323,Ba3(RhO2)14,-1.518922436
9324,Ba7Pb17O24,-1.906047161
9325,Ba13Bi11O36,-2.273918851
9326,Ba5Nb2O10,-3.162276748
9327,Ba17U11O42,-3.489567489
9328,Ba16S16O59,-2.80222834
9329,Ba4Fe4O11,-2.341087405
9330,Ba(WO3)6,-2.291142651
9331,Ba2Ca7I18,-1.608491546
9332,BaTi10O20,-3.493342804
9333,Ba6CaI14,-1.699623725
9334,Ba6Ca11I34,-1.606201468
9335,Ba8Cu8O19,-1.914223167
9336,Ba10V10O29,-2.847011369
9337,Ba2YI7,-1.593725499
9338,BaSO3,-2.7456343
9339,Ba3Y2Br12,-2.012327993
9340,Ba3(YI6)2,-1.537138545
9341,Ba6SrI14,-1.70397932
9342,Ba3Y2Cl12,-2.779903009
9343,Ba2Y5Cl19,-2.697743155
9344,BaY3Cl11,-2.679467573
9345,Ba2Y7Cl25,-2.67587789
9346,BaY2Cl8,-2.694156133
9347,BaY4Cl14,-2.673919286
9348,BaTm2F8,-4.451349735
9349,Ba3Ti2O7,-3.422095838
9350,Ba5Sc6O14,-3.512065848
9351,Ba3La2Cl12,-2.865344202
9352,Ba3YI9,-1.626318891
9353,Ba3LaCl9,-2.903699899
9354,Ba3La2Br12,-2.095994569
9355,BaLa2Cl8,-2.845635222
9356,Ba5La2Cl16,-2.846912677
9357,Ba3LaBr9,-2.161361253
9358,Ba3LaI9,-1.709409529
9359,Ba5La3I19,-1.609419945
9360,Ba9Rh8O27,-2.027461915
9361,Ba6Sr11I34,-1.665585157
9362,Ba3(LaI6)2,-1.58905854
9363,Ba2Ti6O13,-3.507366447
9364,Ba2ZnF6,-3.639580436
9365,Ba4Ti11O26,-3.51637092
9366,Ba6YI15,-1.64399633
9367,Ba3YF9,-4.207647829
9368,Ba6YBr15,-2.071398243
9369,Ba6YCl15,-2.817116568
9370,Ba2Y5F19,-4.312165989
9371,Ba5Y3F19,-4.235778723
9372,Ba4Ce2O7,-3.117638737
9373,Ba4Hf3O10,-3.694658156
9374,Ba2GeO4,-2.870222712
9375,BaOsO3,-2.056738108
9376,Ba9La5Cl33,-2.901172363
9377,Ba4PdO6,-2.432017518
9378,Ba(GaSe2)2,-1.093830416
9379,Ba(MgGe)2,-0.472135972
9380,BaCdO2,-2.159571489
9381,Ba4Sb2O9,-2.663551052
9382,BaThO3,-3.706501605
9383,Ba(CdSb)2,-0.54801439
9384,Ba2GeP2,-0.851301477
9385,Ba(PPd)2,-0.800326319
9386,Ba(CdP)2,-0.587429387
9387,BaSnF6,-3.418075615
9388,Ba3FeN3,-0.71405459
9389,BaMnS2,-1.668461166
9390,BaP4O11,-2.775779214
9391,Ba(GaS2)2,-1.555274149
9392,BaGa12O19,-2.349233517
9393,Ba9La5I33,-1.662157738
9394,Ba9La5Br33,-2.135887054
9395,BaPaO3,-3.584103329
9396,BaNpO3,-3.384916289
9397,Ba(PRh)2,-0.959745591
9398,BaSbPt,-0.9446278
9399,Ba2Ga2O5,-2.54287632
9400,BaHg2Pb,-0.43017859
9401,BaTlHg2,-0.389400835
9402,Ba2HgPb,-0.593701357
9403,Ba2TlCd,-0.37095079
9404,BaNaHg2,-0.388588971
9405,Ba2CdPb,-0.49181606
9406,Ba8(Bi2O7)3,-2.290328264
9407,Ba4(PtO3)3,-2.084200469
9408,Ba3CaI8,-1.714748288
9409,Ba5Ru2O11,-2.25833911
9410,Ba2SnHg,-0.630292847
9411,Ba5Y3Br19,-2.015641589
9412,Ba4PtO6,-2.478044584
9413,Ba2CuO3,-2.296585047
9414,Ba3Nb5O15,-3.219853556
9415,Ba3NaN,-0.34242816
9416,BaCdS2,-1.677715698
9417,Ba3Dy4O9,-3.579723104
9418,BaPIr,-0.905629614
9419,Ba(SbO3)2,-2.394114899
9420,Ba2ZnN2,-0.569247135
9421,Ba2HfS4,-2.303725286
9422,Ba3MnN3,-0.815797519
9423,Ba6Ni25S27,-1.009345252
9424,Ba(NiP)2,-0.776901083
9425,BaSi4O9,-3.305029736
9426,Ba(MgSb)2,-0.77289818
9427,KBaP,-0.251104756
9428,BaNaSb,-0.638779145
9429,BaSrSn,-0.205881157
9430,BaNaSn,-0.179854235
9431,KBaSn,0.0301053
9432,Ba3TiS5,-2.238069614
9433,Ba2Si5N8,-1.352073927
9434,BaNaP,-0.774135429
9435,KBaO3,-1.266034539
9436,RbBaO3,-1.284166759
9437,BaSb2Pd,-0.808123885
9438,Ba4Sb2O,-1.598265012
9439,Yb2BaCa,0.02531084
9440,Yb2BaSr,0.02803762
9441,Ba(LuS2)2,-2.510423643
9442,Ba2TlZn,-0.28284165
9443,BaSr3O4,-2.984403019
9444,Ba2ZnCd,-0.234801382
9445,Ba2Pd2O5,-1.78263856
9446,BaWN3,-0.834136811
9447,BaReN3,-0.711575333
9448,BaMgSi,-0.387455442
9449,BaLiSi,-0.176665697
9450,BaCuO2,-2.000478222
9451,Ba(Sb3Ru)4,-0.340297583
9452,BaZrSe3,-1.561613995
9453,BaHfS3,-2.213680775
9454,BaHfO3,-3.802224444
9455,Ba2Co2F11,-2.843876124
9456,Ba2Fe3O8,-1.927074175
9457,BaSn4O7,-1.746348759
9458,BaGaSiH,-0.446864086
9459,Ba2NaO,-1.459518647
9460,BaCa3O4,-3.019285781
9461,Ba2ScIrO6,-2.789927878
9462,Ba2CuTeO6,-2.167802332
9463,BaYCuTe3,-1.249973086
9464,Ba4Nd2Cd3Se10,-1.554759442
9465,Ba4Sm2Cd3S10,-1.977579988
9466,Ba2LiReN4,-0.973727901
9467,Ba2LiOsO6,-2.457338688
9468,BaC2(SN)2,-0.778404117
9469,Ba2Si2CuO7,-2.96765888
9470,BaYSi4N7,-1.451814696
9471,BaSeO4,-2.169452072
9472,BaCdSnS4,-1.381964731
9473,BaCu2SnSe4,-0.741580497
9474,Ba2YTaO6,-3.587844908
9475,Ba2CaReO6,-2.931423238
9476,Ba2NdNbO6,-3.372384199
9477,Ba2DyNbO6,-3.474024319
9478,Ba2TmNbO6,-3.506179652
9479,Ba2LuNbO6,-3.519707345
9480,Ba2LaTaO6,-3.523885939
9481,BaCuTeF,-2.03219529
9482,Ba2SrTeO6,-2.745368974
9483,Ba3CaIr2O9,-2.367570383
9484,Ba2MgUO6,-3.474759662
9485,Ba2DyReO6,-3.059157516
9486,YbBa2ReO6,-3.009614458
9487,YbBa2SbO6,-1.077190553
9488,Ba2YSbO6,-1.01112403
9489,BaZnP2O7,-2.853818257
9490,Ba2SrUO6,-3.523698998
9491,YbBa2(CuO2)4,-1.920824369
9492,Ba2YIrO6,-2.775265737
9493,Ba2LaIrO6,-2.722591758
9494,Ba2NaNb5O15,-3.135488008
9495,BaPr2CoS5,-2.020896452
9496,BaLa2ZnS5,-2.244486113
9497,BaCe2ZnS5,-2.124243963
9498,BaPr2ZnS5,-2.155386336
9499,BaNd2ZnS5,-2.1549933
9500,BaNd2MnS5,-2.129037934
9501,BaLa2FeS5,-2.143583767
9502,BaCe2FeS5,-2.055813642
9503,BaNd2FeS5,-2.056545081
9504,BaSm2FeS5,-2.053644539
9505,Ba6Nd2Ti4O17,-3.492607904
9506,Ba6Y2Ti4O17,-3.546401851
9507,KBaNbS4,-1.801076988
9508,Ba4LiTa3O12,-3.383929047
9509,BaTiOF4,-3.948775515
9510,Ba10P6SO24,-3.27918058
9511,Ba2Nb6Te2O21,-2.866311063
9512,KBaPS4,-1.56938882
9513,Ba3CuSb2O9,-2.353386044
9514,Ba2Ca(PdO2)3,-2.030229262
9515,Ba2SnSe3F2,-2.256748696
9516,RbBaPO4,-3.044443078
9517,BaNd2BeO5,-3.452544371
9518,Ba2SnS3F2,-2.549882365
9519,BaCu2SnS4,-1.137437296
9520,BaLaCuS3,-2.051292355
9521,KBaPSe4,-1.02666247
9522,Yb8Ba5Zn4O21,-2.697816899
9523,BaCa2(SiO3)3,-3.44422174
9524,Ba5Dy8Zn4O21,-3.264915975
9525,BaLa2BeO5,-3.505320553
9526,BaSi3SnO9,-3.109108502
9527,Ba2Li(CuO2)3,-1.828851776
9528,BaV2(NiO4)2,-2.190655742
9529,BaYMn2O6,-2.690165025
9530,Yb2BaNiO5,-2.568849836
9531,BaTm2NiO5,-3.108222545
9532,Ba2SrWO6,-2.974940177
9533,Ba2Mn3(SbO)2,-1.29623048
9534,BaDyCo4O7,-2.108518526
9535,Ba2FeWO6,-2.605568284
9536,BaYMn2O5,-2.798169559
9537,BaNd2Mn2O7,-2.971559317
9538,KBaVO4,-2.792215107
9539,Ba2NdMoO6,-2.987267397
9540,BaNi2(PO4)2,-2.460384077
9541,BaCa(FeO2)4,-2.258135931
9542,BaCoO3,-2.070126149
9543,Ba2CoMoO6,-2.447159344
9544,Ba2CaWO6,-3.036412163
9545,Ba2MgWO6,-2.962980709
9546,Ba2MnTeO6,-2.493075706
9547,Ba2FeMoO6,-2.577271797
9548,Ba2NiTeO6,-2.230762772
9549,BaTeMo2O9,-2.216045867
9550,BaMg2V2O8,-2.881202317
9551,Ba2MnWO6,-2.754033987
9552,BaCoO2,-2.122205884
9553,Ba2UNiO6,-3.038366322
9554,BaCrP2O7,-2.905095835
9555,BaYCo4O7,-2.100365233
9556,BaDy2CoO5,-3.175622633
9557,BaFe(Si2O5)2,-3.144120917
9558,Ba2V(SiO4)2,-3.2230065
9559,BaMnP2O7,-2.929460223
9560,Ba2Mn2Sb2O,-1.167138457
9561,Ba2WO3F4,-3.364338719
9562,BaMoO4,-2.723642093
9563,BaMoO3,-2.594870571
9564,BaY2NiO5,-3.049638924
9565,Ba3CoSb2O9,-2.458177668
9566,Ba2Na(NiO2)3,-1.623107839
9567,Ba2CaMoO6,-2.948964915
9568,Ba5Nd8Mn4O21,-3.185764141
9569,Ba5Gd8Mn4O21,-3.240897063
9570,BaV2(CoO4)2,-2.315323198
9571,BaMn2V2O8,-2.565863039
9572,BaCr(Si2O5)2,-3.18317021
9573,KBaFeO3,-2.261146999
9574,Ba3MnSb2O9,-2.577460301
9575,BaLuCo4O7,-2.131463157
9576,Ba3V2S4O3,-2.322056728
9577,BaTeW2O9,-2.271124906
9578,Ba6Lu2(WO6)3,-3.122716105
9579,BaGd2PtO5,-3.023225156
9580,YbBa2NbO6,-3.174720422
9581,Ba2GdCu3O7,-2.18128437
9582,Ba2InO3F,-2.885351947
9583,K4BaU3O12,-3.227346063
9584,Ba2GdNbO6,-3.431653725
9585,BaGdCuSe3,-1.587269463
9586,BaPr2CuO5,-2.950560315
9587,Ba3NaIr2O9,-2.156989204
9588,Ba2NbInO6,-2.978111816
9589,Ba2ScSbO6,-0.797724852
9590,Ba2CaIrO6,-2.5492669
9591,Ba2TlCuO5,-1.890079294
9592,Ba2LaReO6,-2.977603972
9593,EuBa2TaO6,-3.349454524
9594,Ba3In2O5F2,-2.857982154
9595,Ba4UCr2S9,-1.948714881
9596,BaLa2In2O7,-2.958684446
9597,Ba2CePtO6,-2.814224106
9598,BaTm2CuO5,-3.132991234
9599,Ba2UCuO6,-2.658629228
9600,EuBa2NbO6,-3.219521165
9601,BaCe2CoS5,-2.042610186
9602,BaSi2Cu2O7,-2.527059381
9603,BaLa2CoS5,-2.108443204
9604,Ba2MgReO6,-2.855035457
9605,Ba2NaOsO6,-2.404704677
9606,BaDy2CuO5,-3.097533798
9607,Ba2LuIrO6,-2.825866156
9608,Ba2BiSbO6,-2.468332259
9609,Ba2TaBiO6,-2.967380762
9610,Ba2Cu3(BrO2)2,-1.70309001
9611,Ba2YBiO6,-2.827240762
9612,BaTa2Bi2O9,-2.802819359
9613,BaH3C3O7,-1.838865547
9614,BaH6Cl2O11,-1.289639295
9615,BaH4(IO)2,-1.524840155
9616,BaH2Cl2O7,-1.380389194
9617,BaH2I2O7,-1.503298868
9618,BaYCo2O5,-2.409528715
9619,Ba2CoWO6,-2.591842407
9620,BaLa(CoO3)2,-2.283405455
9621,Ba2UCoO6,-3.034951507
9622,BaLu2CoO5,-3.233060483
9623,BaSr(FeO2)4,-2.247827281
9624,BaYFe2O5,-2.659470364
9625,BaDyFe2O5,-2.680075032
9626,Ba2UMnO6,-3.276146465
9627,Ba2MnMoO6,-2.676565605
9628,Ba2Ni(NO2)6,0.361258392
9629,BaInCo4O7,-1.714576423
9630,YbBaCo4O7,-1.961071361
9631,Ba5V3ClO12,-3.056408599
9632,BaV2CdO7,-2.50981712
9633,Ba3Te4O11,-2.2479352
9634,BaSe2O5,-1.93028843
9635,Ba7Ir6O19,-2.084590938
9636,Ba2TaCrO6,-3.177562815
9637,Ba2FeReO6,-2.549868593
9638,Ba2MnReO6,-2.654515208
9639,Ba2ReNiO6,-2.395607157
9640,Ba3Ta2NiO9,-3.133607732
9641,BaV3O8,-2.646862271
9642,Ba(Mo3S4)2,-1.243563215
9643,BaGe4O9,-2.370256515
9644,Ba10Ta10(N3O7)3,-2.734650005
9645,BaZnO2,-2.37311852
9646,BaTi6O13,-3.522760275
9647,Ba5Ta4O15,-3.458101282
9648,EuBa2ReO6,-2.905315891
9649,Ba2NiWO6,-2.509273297
9650,BaMo3O10,-2.312036623
9651,BaP2PbO7,-2.847631311
9652,BaGd2CoO5,-3.112476021
9653,BaGd2PdO5,-3.024882918
9654,Ba2CuWO6,-2.446176449
9655,CsBa2Nb3O10,-3.148396243
9656,Ba2(Mo2S3)3,-1.392691721
9657,BaGa2(GeO4)2,-2.472340803
9658,K2Ba(SO)12,-1.814389963
9659,BaSn(GeO3)3,-2.369068565
9660,BaMnSnS4,-1.369092437
9661,Ba2NiOsO6,-2.155851038
9662,BaCd(PO3)4,-2.739230475
9663,Ba3YIr2O9,-2.460674068
9664,Ba3SrTa2O9,-3.406892067
9665,Ba3SrNb2O9,-3.278010052
9666,BaH2N2O5,-1.528115079
9667,BaLaGaO4,-3.13343384
9668,BaNdGaO4,-3.092572154
9669,BaTm2CoO5,-3.225807576
9670,BaLaCuSe3,-1.625224428
9671,Yb2BaCoO5,-2.789212254
9672,Ba3LiOs2O9,-2.382610131
9673,Ba3NaOs2O9,-2.35127698
9674,Ba2CoSi2O7,-3.081857959