id,Composition,FormationEnergy
24260,Mn3Cr3(WO8)2,-2.053386197
24261,Li32Mn11Cr5O48,-2.200545729
24262,Li2Cr3P9O28,-2.595403356
24263,Li32Ti5Cr11O48,-2.471006369
24264,Li32Ti11Cr5O48,-2.753795988
24265,Li32Mn5Cr11O48,-2.221172021
24266,Li9Cr2(H9O7)3,-1.640983129
24267,Li2CrPO6,-2.333863763
24268,Li3Cr2Fe5O12,-1.959133721
24269,Li3Cr2(FeO4)2,-2.13299181
24270,Li4Cr3(FeO4)3,-2.084619829
24271,Li4Cr5(P3O11)2,-2.546125947
24272,Li4Ti3V2Cr3O16,-2.772179299
24273,Li2Cr3(NiO6)2,-1.693036374
24274,Li4Mn3Cr3O12,-2.206482522
24275,Li4Cr2Fe3O10,-2.0997476
24276,Li3MnCr3O8,-2.264690203
24277,Li3Cr2(NiO4)2,-1.786559735
24278,Li3Mn2Cr2O8,-2.199354772
24279,LiMn2Cr2O8,-1.99241066
24280,Li4Cr2Ni5O12,-1.540621473
24281,Li4V5Cr2O12,-2.382525189
24282,Li4V3Cr2O10,-2.395221594
24283,Li4CrSb(TeO6)2,-1.971814968
24284,Li4Mn3Cr2O10,-2.167367614
24285,Li3V5Cr2O12,-2.393230013
24286,Li2Cr(FeO3)2,-1.986618072
24287,K8Li3Cr4O16,-2.033314608
24288,Li4Ti3Cr3(NiO8)2,-2.419438523
24289,Li2V5Cr2O12,-2.39048734
24290,Li3TiCr2O6,-2.568749915
24291,Li4Cr3Cu3(SbO8)2,-1.879278794
24292,NbCr2Fe3(PO4)6,-2.533298304
24293,LiCr(Si2O5)2,-2.974910617
24294,NbCr3(PO4)6,-2.498742223
24295,Li2V2CrO6,-2.419942953
24296,LiV2CrO6,-2.363505185
24297,Li4V3Cr3O12,-2.407627843
24298,Li3V2Cr2O8,-2.40482324
24299,Li3V3Cr2O10,-2.380804891
24300,LiCr3(P3O10)2,-2.569600242
24301,Li4Cr2Fe5O12,-2.063494325
24302,CsCrH24(SO10)2,-1.605113863
24303,K8Li9Cr4O16,-1.980051615
24304,Li3Mn5Cr2O12,-2.116980163
24305,LiMnCr2O6,-2.086384621
24306,Li2Mn3Cr3O12,-2.065193742
24307,Li4Mn5Cr2O12,-2.160947577
24308,Li9Mn7Cr12O48,-1.935765176
24309,Li3CrNi3O8,-1.514455467
24310,V3Cr2Sn(PO4)6,-2.535901206
24311,Li2Cr2NiO6,-1.893792146
24312,Na9Cr2(H9O7)3,-1.591561667
24313,K2CrH2F8,-2.662478082
24314,La3CrW(SO2)3,-2.799644451
24315,Li15Cr15SiO32,-2.377122167
24316,Li2Cr5(Si2O7)2,-2.662359197
24317,Li4Mn3Cr2Cu3O16,-1.762894006
24318,Li2Cr2FeSbO8,-2.199695642
24319,Li4Ti4Cr5O18,-2.717650574
24320,CrCu(PO4)2,-2.210930419
24321,Na2CrH2F8,-2.603402087
24322,NaCrH8(NF3)2,-1.796870513
24323,Li3Cr2CuO6,-2.066963691
24324,Sr4MgCr2(SO3)2,-2.609593345
24325,Sr3MgCr2S2O5,-2.488863805
24326,Sr2YTlCr2O7,-2.609203674
24327,Sr2YCr2GaO7,-2.780921576
24328,SrMgCr(PO4)2,-2.954390839
24329,SrZnCr(PO4)2,-2.729846177
24330,Sr3Cr2S2O5,-2.34780414
24331,Sr2CrSO3,-2.462433817
24332,MgCrSF5,-2.812204524
24333,ZnCrSF5,-2.383781384
24334,Sr2YCrCu2O7,-2.434146975
24335,MgCrNiP2O9,-2.410863173
24336,ZnCrNiP2O9,-2.185940356
24337,LaMgCrFeO6,-2.63498274
24338,LaZnCrFeO6,-2.352993662
24339,MgTiCr(PO4)3,-2.912146479
24340,TiZnCr(PO4)3,-2.730508769
24341,Y4Cr13Si2(SbO14)2,-2.422939117
24342,LaMgTiCrO6,-3.215687313
24343,LaMgVCrO6,-2.901889769
24344,LaMgMnCrO6,-2.701442388
24345,LaMgCrWO6,-2.726616786
24346,LaMgCrSbO6,-2.605448816
24347,LaVZnCrO6,-2.620299641
24348,LaTiZnCrO6,-2.938787158
24349,LaMgCrMoO6,-2.769913164
24350,LaZnCrSnO6,-2.478167791
24351,LaMgCrNiO6,-2.349634633
24352,LaZnCrSbO6,-2.336573892
24353,LaMnZnCrO6,-2.416581708
24354,LaTaZnCrO6,-2.887512819
24355,LaZnCrMoO6,-2.491331647
24356,LaZnCrWO6,-2.450391779
24357,LaMgTaCrO6,-3.14927625
24358,LaMgCrCuO6,-2.335939325
24359,LaMgCrSnO6,-2.758532182
24360,LaZnCrCuO6,-2.053959807
24361,Cs,0
24362,CsH3,0.669603446
24363,CsRbN,0.616918766
24364,CsRbP,-0.028582019
24365,Cs2Se,-1.0744252
24366,CsHSO3,-1.906289069
24367,Cs2MgSi5O12,-3.16119603
24368,Cs4ZnO3,-1.449917573
24369,Cs3Y(PO4)2,-2.979524313
24370,Cs4Si3O8,-2.819849168
24371,CsY(PO3)4,-2.936087393
24372,EuCs(PO3)4,-2.808735927
24373,Cs2PuO4,-2.706406156
24374,Cs2CuF4,-2.507012478
24375,Yb(CsH2)2,-0.405482059
24376,Cs2NpO4,-2.871524677
24377,Cs2TmH4,-0.291353224
24378,Cs3Sb,-0.33554286
24379,Cs2Ti(CuSe2)2,-0.972533024
24380,Cs3Hg20,-0.164850615
24381,CsSn,-0.319817161
24382,CsYHgSe3,-1.239694583
24383,CsLaHgSe3,-1.30839631
24384,Cs(MnP)2,-0.485960054
24385,Cs2Pd3Se4,-0.75747358
24386,CsNdTe2,-1.414226004
24387,CsNbF6,-3.456463961
24388,Cs(FeSb)2,-0.032373408
24389,Cs3TiF7,-3.456986087
24390,CsVP2S7,-1.035510838
24391,YbCsSe2,-1.275654057
24392,CsPrZnTe3,-1.110999252
24393,CsNdZnTe3,-1.111506897
24394,CsSmZnTe3,-1.111400544
24395,CsGe,-0.231773713
24396,CsUCuS3,-1.553295551
24397,Cs2Pt,0.001729212
24398,CsSi,-0.080148266
24399,Cs3SiF7,-3.356756504
24400,Cs2NaTlF6,-2.750124736
24401,Cs2NaErF6,-3.635726005
24402,Cs2NaInF6,-3.03201253
24403,Cs2NaYF6,-3.609585578
24404,Cs2HfF6,-3.794830842
24405,Cs2Pt3S4,-1.047915842
24406,Cs2Ni3Se4,-0.655136064
24407,Cs2Pt3Se4,-0.720081276
24408,Cs2SrP2O7,-2.928430704
24409,CsNaSnF6,-3.050801851
24410,CsO2,-0.983627247
24411,CsK4GaO4,-1.732971638
24412,Cs4Ta2S11,-1.397352356
24413,CsCu2F6,-2.157501932
24414,Cs2P3,-0.480105945
24415,Cs2Ti(PO4)2,-2.921102367
24416,Cs2NbCuSe4,-0.996127372
24417,Cs2NaTiF6,-3.322531746
24418,Cs3P6N11,-0.811904203
24419,CsSm2CuSe4,-1.502297821
24420,CsIn(PO3)4,-2.616921825
24421,Cs3Cu5O4,-1.100866077
24422,Cs2Ti(GeO3)3,-2.456304835
24423,CsErSiS4,-1.818495478
24424,Cs3TaS4,-1.6552767
24425,CsCuSe4,-0.432483488
24426,TbCs(PO3)4,-2.947379772
24427,Cs4SnO4,-1.778725939
24428,CsTiP2O7,-2.892102292
24429,Cs2WS4,-1.426745866
24430,CsEr3Se5,-1.839417453
24431,Cs2RuO4,-1.75477983
24432,CsNd(PO3)4,-2.944064778
24433,CsReO4,-2.382493498
24434,CsGaTe2,-0.75032734
24435,Cs3Na2SnP3,-0.398466519
24436,CsPr(PO3)4,-2.9429938
24437,Cs3SbSe4,-0.907435663
24438,CsF,-2.876941083
24439,Cs2Hg6S7,-0.714523896
24440,Cs4Zn3F10,-2.8311877
24441,Cs3GeF7,-3.043729243
24442,CsCuS4,-0.885174781
24443,CsNa3TiO4,-2.422168383
24444,CsTe7Mo6,-0.385478036
24445,Cs6Si2O7,-2.416290284
24446,CsMgPO4,-2.935739911
24447,YbCsP2O7,-2.886081786
24448,CsHo3Te5,-1.412102592
24449,CsEr2Cu3S5,-1.541968788
24450,CsDy2Cu3Se5,-1.121401394
24451,CsZnPO4,-2.514942957
24452,Cs2LiMnO4,-1.901002913
24453,CsMnO4,-1.51750597
24454,Cs2SrV4O12,-2.583965054
24455,Cs2NaVO4,-2.318143518
24456,CsFe2P5O16,-2.577655287
24457,KNa2Li3Cr2(Si2O5)6,-3.043708791
24458,CsUCuTe3,-0.73218526
24459,CsPbF3,-2.813217971
24460,Cs2PbO3,-1.570750381
24461,Cs2In2Sb3,-0.382344564
24462,CsIn5S8,-1.057465948
24463,Cs2MnSnTe4,-0.615549265
24464,CsSr2Nb3O10,-3.172700175
24465,CsGdHgSe3,-1.246998232
24466,CsNO3,-1.507485149
24467,CsI3,-0.843260863
24468,CsVI3,-0.922734061
24469,Cs3Sb2I9,-0.920513025
24470,Cs2PtI6,-0.832103996
24471,CsCu2I3,-0.631357925
24472,Cs3Cu2I5,-1.018991639
24473,CsIO4,-1.191044514
24474,CsMgH3,-0.320671312
24475,Cs2MgH4,-0.304756263
24476,Cs3MgH5,-0.295700022
24477,Cs3H(SeO4)2,-1.695766622
24478,CsHSeO4,-1.552296185
24479,CsHF2,-2.54577865
24480,Cs4Sn23,-0.174384003
24481,CsMoPO6,-2.440409845
24482,Cs2Mo3SeO12,-2.043213157
24483,CsV3(SeO6)2,-2.00604418
24484,Cs(WO3)2,-2.219848304
24485,LiCrPO4F,-2.764311746
24486,Li2CrPO4F,-2.67725554
24487,CsFeP2O7,-2.592300317
24488,Cs2Sb4S7,-0.9239788
24489,CsTcO4,-2.192313542
24490,CsSnI3,-0.964257887
24491,CsNbO3,-2.85592566
24492,Cs2SnI6,-0.925218489
24493,CsH7O4,-1.47897251
24494,CsIO3,-1.396494485
24495,CsTlI4,-0.750285715
24496,CsGeI3,-0.849316031
24497,Cs3InO3,-1.655274096
24498,Cs2HgI4,-1.062591494
24499,TbCsF5,-3.45504841
24500,Cs2Cu5Se4,-0.478798109
24501,Cs2Ni3S4,-1.0411554
24502,Cs4ZrO4,-2.308331232
24503,CsI3F16,-2.139806935
24504,Cs2CuF6,-2.301684367
24505,CsSbS6,-0.874687958
24506,Cs2Mn3S4,-1.103916823
24507,Cs2SnTe4,-0.639570855
24508,CsSrN9,-0.480704046
24509,CsS,-1.285916077
24510,CsSbF4,-2.894401719
24511,Cs2GaSb2,-0.443778976
24512,Cs2HfI6,-1.271297911
24513,CsXeF7,-1.423817782
24514,CsNaGe2,-0.207209114
24515,Eu2CsI5,-1.605211802
24516,CsSbSe2,-0.719929044
24517,Cs(SO2)2,-2.014688353
24518,CsMgI3,-1.28536517
24519,Cs2PdI6,-0.799306636
24520,Cs4SiSe4,-1.106119859
24521,CsReF8,-2.618943261
24522,Cs2UO4,-3.046809037
24523,Cs3Sb5O14,-1.981563538
24524,CsH3O2,-1.455985091
24525,CsGa7,-0.110839272
24526,CsK2,-0.003081562
24527,CsTi2I7,-0.846579126
24528,Cs2PdSe8,-0.512981812
24529,Na2TiCr(PO4)3,-2.789225818
24530,Cs2TiS3,-1.72275267
24531,CsNO2,-1.384720266
24532,Cs(SbSe2)2,-0.517231534
24533,CsTaN2,-1.11375606
24534,Cs2TaS6,-0.948547615
24535,Cs2Mn3Se4,-0.741454234
24536,CsNd5Se8,-1.770659734
24537,CsU2F9,-3.8034318
24538,Cs2SiF6,-3.46708943
24539,Cs4U5O17,-3.358657133
24540,CsNa2Si17,-0.044099051
24541,CsGaS2,-1.396641788
24542,Cs2ZnO2,-1.55656017
24543,CsTiF4,-3.507621163
24544,Cs2PdF6,-2.441197124
24545,Cs(Zr3I7)2,-0.922788707
24546,CsPS3,-1.114781071
24547,Cs2Li2SiO4,-2.493664112
24548,Cs2Na3InO4,-1.650712395
24549,Cs2Te2O5,-1.768077305
24550,Cs4Sn2Te7,-0.686718018
24551,Cs4Cu3F10,-2.418899334
24552,Cs2MnS2,-1.234948798
24553,Cs2SnS14,-0.88449302
24554,CsHoS2,-2.16331002
24555,CsCu4Se3,-0.366875238
24556,Cs2Sn(H2N)6,-0.490085519
24557,Sr2CrCuSO3,-2.323490525
24558,CsNb(CuTe2)2,-0.495830037
24559,CsTa(CuTe2)2,-0.478382058
24560,CsNa3PbO4,-1.622747955
24561,CsDyI3,-1.26493221
24562,Cs2Te13,-0.263862322
24563,CsFeS2,-1.118224632
24564,Cs2Zn3S4,-1.26892826
24565,Cs2Te3,-0.758959989
24566,CsSmZnSe3,-1.417686663
24567,CsHoZnSe3,-1.423156488
24568,CsTmZnSe3,-1.416698435
24569,Cs2SiO3,-2.636648622
24570,Cs2SO4,-2.38407632
24571,CsLa2CuSe4,-1.596994227
24572,CsNdHgSe3,-1.243754363
24573,Cs3O,-0.964907792
24574,Cs2Pd3S4,-1.058012087
24575,CsSbO2,-1.880840663
24576,CsGaSe3,-0.799267228
24577,Cs2LiVS4,-1.555163067
24578,CsMnSb,-0.116156819
24579,CsLaZnTe3,-1.166553348
24580,CsDyZnTe3,-1.105307359
24581,CsN3,-0.444837718
24582,CsNaTe,-1.0274721
24583,Cs2Hg3I8,-0.728535528
24584,CsMnI3,-0.920062706
24585,CsPr(SO4)2,-2.68448655
24586,CsV2O5,-2.472054709
24587,Cs2S,-1.213831703
24588,Cs2Sn(GeO3)3,-2.187645964
24589,CsNb(PO4)2,-2.854825209
24590,CsVO3,-2.439937155
24591,Cs2Sn2O3,-1.746366338
24592,Cs3Zr2I9,-1.234071337
24593,CsPbI3,-1.052747959
24594,CsHg(NO2)3,-0.194107823
24595,CsCuF4,-2.251773688
24596,Cs2TeI6,-0.834838479
24597,CsHSO4,-2.093410391
24598,Cs2FeO4,-1.529712324
24599,Cs2CuO2,-0.261666956
24600,CsH5O3,-1.500123147
24601,CsUN3O11,-1.803398771
24602,CsCuO,-1.210607337
24603,CsYO2,-2.973886579
24604,Cs2Se5,-0.621452167
24605,CsUNbO6,-3.253677938
24606,Cs3P7,-0.456734434
24607,CsV2P5O16,-2.719806955
24608,Cs2LiVO4,-2.39190699
24609,Cs(MoO3)3,-2.103205934
24610,Cs2K4Fe2O5,-1.558978857
24611,Cs6Fe2O5,-1.49586984
24612,CsYP2O7,-3.164730368
24613,Cs2MnO4,-1.755183712
24614,CsTeF5,-2.775601089
24615,Cs6K3GaSb4,-0.446060615
24616,CsRe3(O3F5)2,-2.539917491
24617,CsV3(TeO6)2,-2.080333543
24618,Cs4Ti3S14,-1.473542398
24619,Cs8Ta6O19,-2.963612681
24620,Cs4PbO4,-1.541667199
24621,Cs5Hg19,-0.228440333
24622,CsIn3,-0.15514595
24623,Cs3GaSe3,-1.099540384
24624,CsFe2S3,-1.046420669
24625,CsEr2Cu3Se5,-1.112410234
24626,Cs2Si2Se5,-0.870960529
24627,Cs4Mg3F10,-3.450022118
24628,Cs2U2O7,-3.296883414
24629,CsLaNb2O7,-3.215240443
24630,CsCu3O2,-0.98554791
24631,CsNdO2,-2.873775423
24632,CsCuO2,-1.366512312
24633,Cs4Sb2O5,-1.832734284
24634,CsTaPS6,-1.220803598
24635,Cs2Ni(PS3)2,-1.021851927
24636,Cs2LiF3,-2.933031657
24637,CsFeF4,-2.930922423
24638,Cs2NaMnF6,-2.952370548
24639,Cs2Si3SnO9,-2.892696298
24640,Cs2Mo15S19,-1.095788541
24641,CsSb(PO4)2,-2.491871672
24642,Cs2VF6,-3.188252945
24643,CsLuP2O7,-3.192453762
24644,CsNdNb2O7,-3.204388362
24645,CsGa2P5O16,-2.63432563
24646,Cs2Li3GaO4,-2.023587395
24647,Cs2MnF5,-3.005748073
24648,CsFeF3,-2.849472735
24649,CsLi3F4,-3.040426352
24650,Cs4Nb2Si8O23,-3.118282603
24651,CsZr(NO3)5,-1.450879406
24652,CsSb2F11,-2.813927933
24653,Cs3Ta2S11,-1.349794162
24654,Cs3Ga2F9,-3.083492583
24655,Cs2Zr(IO3)6,-1.386915971
24656,Cs2Si8Cu2O19,-2.887738651
24657,Cs2NaFeF6,-3.004918204
24658,Cs2K2TeO5,-1.810928633
24659,CsSb2F7,-2.833059253
24660,CsS2N3O4,-1.294216274
24661,CsU6F25,-3.923942958
24662,CsSmGeS4,-1.66482527
24663,Cs2KMoF6,-3.047957652
24664,CsTa2P5O18,-2.901235475
24665,CsReOF6,-2.688944317
24666,Cs2TlVF6,-2.8891809
24667,CsNiF3,-2.511343502
24668,CsSi2HO5,-2.826255581
24669,Cs3U2Ge2O11,-2.870735527
24670,Cs2MnF6,-2.932921354
24671,Cs2KNiF6,-2.574046525
24672,Cs4Ni3F10,-2.566149523
24673,CsMnF3,-3.019973923
24674,Cs3Li2F5,-2.957957711
24675,YbCs3(SO4)3,-2.446448493
24676,Cs2KVF6,-3.198067964
24677,CsTa(PO4)2,-2.97817704
24678,CsIn3O5,-1.952928251
24679,CsLa(PO3)4,-2.961296503
24680,Cs3MnF7,-2.919084427
24681,Cs2KFeF6,-3.025855951
24682,CsInS2,-1.31096686
24683,Cs2Ti(Si2O5)3,-3.211879826
24684,Cs3LiF4,-2.942238925
24685,Cs3PO4,-2.499721359
24686,Cs(OsO3)2,-1.695871637
24687,Cs2Li3F5,-2.971602511
24688,CsZr2(PO4)3,-3.201896268
24689,Cs2V(PO4)2,-2.696151542
24690,Cs2GeP4O13,-2.613281734
24691,CsLa(SO4)2,-2.714141692
24692,Cs3CuTeS9,-0.943005215
24693,CsNiPdF5,-2.170175275
24694,Cs2MoS4,-1.382870969
24695,CsLi(PO3)2,-2.722293955
24696,Cs2TlMoF6,-2.820254652
24697,CsNaTiO3,-2.768310589
24698,CsIOF4,-2.193380938
24699,Cs2KMnF6,-3.012939707
24700,Cs8Tl8O,-0.334612238
24701,CsCu5S3,-0.601639589
24702,CsTi3P5O19,-3.026748233
24703,Cs2Sn2Hg3S8,-0.881365687
24704,Cs2UP2O9,-3.028790267
24705,CsOsNO3,-1.403330822
24706,Cs4Si2CuO7,-2.402808166
24707,Cs2KRhF6,-2.670855802
24708,CsLaS2,-2.220003839
24709,CsLuS2,-2.144866922
24710,CsSmSiS4,-1.835028609
24711,CsSbS2,-1.067564843
24712,Cs2TeOF4,-2.642249235
24713,Cs4IrO4,-1.475940625
24714,CsSO3,-2.2306651
24715,Cs(MoS)3,-1.105070805
24716,CsLiMoO4,-2.328210834
24717,CsSnS3,-1.112247224
24718,CsEr(PO3)4,-2.940471052
24719,Cs7O,-0.484138003
24720,CsErS2,-2.15943103
24721,Cs(TeO3)2,-1.667199638
24722,Cs3TlF6,-2.673108692
24723,Cs3TaO8,-1.918816462
24724,CsHgF3,-2.276712274
24725,Cs11O3,-0.829746055
24726,Cs3SbO3,-1.801552832
24727,CsK4TlO4,-1.416559589
24728,Cs3Mn4(PO3)12,-2.639355288
24729,Cs2PbO2,-1.515104117
24730,Cs2Si2O5,-2.915077907
24731,Cs2U3(TeO7)2,-2.887296888
24732,Cs4Li2(Si2O5)3,-2.969373322
24733,Cs3Ta5O14,-3.201937131
24734,Cs2SeO4,-1.831589405
24735,Cs2GaP3O10,-2.678432118
24736,Cs2Na3TlO4,-1.452195563
24737,CsPPbS4,-1.083368312
24738,CsU2O6,-3.507595558
24739,CsGaS3,-1.240415261
24740,CsFe(SO4)2,-2.17068713
24741,CsMo2P3O13,-2.519414431
24742,CsV(SO4)2,-2.31890244
24743,Sr8Tl3Cr(CuO5)4,-2.064351338
24744,Cs3Mo4P3O16,-2.316157282
24745,Cs2V4O9,-2.484969973
24746,CsMn(PO3)4,-2.595474299
24747,CsTiI3,-1.046553396
24748,Cs2In3,-0.174191338
24749,Cs2Hg27,-0.091179748
24750,Yb3CsSe4,-1.676642192
24751,CsFeI4,-0.698445885
24752,CsLi2I3,-1.328937403
24753,Cs2PSe5,-0.658558453
24754,CsErZnTe3,-1.093516793
24755,Cs3MnI5,-1.230914812
24756,Cs4P2Se9,-0.701565675
24757,Cs3LiI4,-1.466812986
24758,Cs6K7,-0.002181196
24759,CsZr6MnI14,-0.975179286
24760,CsNb6I11,-0.568766781
24761,CsTiCu3Se4,-0.7488334
24762,CsSiTe3,-0.477188849
24763,CsI4,-0.683391252
24764,Cs2UHg2Se5,-0.868657473
24765,Cs3Mo2I9,-0.80347552
24766,Cs3P7Pb2O21,-2.601870735
24767,Cs2Sb2OF10,-2.867943558
24768,Cs3Nd(PS4)2,-1.477191993
24769,Cs2Ge2S5,-1.175829818
24770,Cs11Rb7O3,-0.54638024
24771,CsUP3O11,-2.933033778
24772,Cs2IrF6,-2.50777945
24773,Cs2I4O11,-1.173583959
24774,Cs3Sm(PS4)2,-1.473954393
24775,CsCu2F5,-2.162720963
24776,CsNaSi2O5,-2.928724531
24777,CsGd(PO3)4,-2.930131321
24778,Cs2LiNbS4,-1.587847512
24779,Cs7Cu6F19,-2.381910204
24780,Cs2Np(SO5)2,-2.587540494
24781,CsGa3S5,-1.252989857
24782,Cs2GeO3,-2.086432017
24783,CsPt2Se3,-0.673024339
24784,CsSb,-0.461647383
24785,TbCsZnSe3,-1.425486896
24786,Cs2Te,-1.018409768
24787,YbCsZnSe3,-1.160022678
24788,Cs2MnSe2,-0.952095769
24789,Cs4Pb9,-0.213261842
24790,Cs4SiTe4,-0.879867356
24791,CsGa3,-0.162569616
24792,CsHg2,-0.268143158
24793,Cs4Ga2Se5,-1.064164286
24794,CsYZnSe3,-1.427743489
24795,CsSmMnSe3,-1.340335029
24796,Cs4Tc6S13,-1.203729019
24797,CsHoZnTe3,-1.099527818
24798,Cs2ZnN12,-0.230382938
24799,CsK2Sb,-0.39345288
24800,Cs2Te10Mo9,-0.430671882
24801,Cs10Si7O9,-1.854129649
24802,Cs2Nb4O11,-2.977479129
24803,Cs2U(SiO4)2,-3.22039336
24804,Cs3Te17Mo15,-0.411336141
24805,CsLu2Cu3Se5,-1.094798915
24806,Cs5Mo21Se23,-0.682762276
24807,CsTm2Cu3Se5,-1.106953966
24808,Cs5(KPb6)3,-0.195610751
24809,CsNa5(WN3)2,-0.619722293
24810,Cs2Zr(Si2O5)3,-3.27002186
24811,CsSi2SbO7,-2.751944617
24812,Cs3PSe4,-0.912834724
24813,Cs3Mo15Se17,-0.657858437
24814,CsMo6Se7,-0.637029863
24815,Cs2Mn3Te4,-0.508708456
24816,CsPd2F5,-1.917660093
24817,Cs2KYF6,-3.61631331
24818,Cs2UMoO7,-2.791248118
24819,CsTaI6,-0.749379006
24820,CsLi2F3,-3.024850956
24821,CsSc3(CuTe3)2,-0.986982123
24822,CsInI4,-0.922916401
24823,Cs2Li3I5,-1.357188208
24824,Cs2MnTe2,-0.791483237
24825,CsSnSe3,-0.691628875
24826,CsI,-1.56833445
24827,Cs3NiF7,-2.452046911
24828,Cs2TeO3,-1.856212933
24829,Yb3CsF10,-3.315470743
24830,Cs5SiP3,-0.36808293
24831,Cs4Fe3F10,-2.876383183
24832,Cs2NaGaF6,-3.087574712
24833,Cs2Na2IrO4,-1.530453153
24834,CsMnF4,-2.953977382
24835,CsUVO6,-3.029591869
24836,Cs7Fe4F15,-2.887739982
24837,Cs2V5O13,-2.428341705
24838,CsUTiTe5,-0.791752262
24839,Cs3Mo5P7O24,-2.417592893
24840,Cs2KTiF6,-3.340315119
24841,Tb2CsCu3Se5,-1.123764489
24842,Cs6ZnGe8,-0.214945625
24843,Cs2KMn3F12,-2.9825077
24844,Cs3Mo2(O2F)3,-2.504750914
24845,Cs3Fe2F9,-2.970090895
24846,CsV(MoO4)2,-2.251821456
24847,Cs2NaScF6,-3.592877743
24848,Cs3Te22,-0.211925378
24849,Cs2SrN12,-0.467913787
24850,Cs3Mo6(P5O19)2,-2.580078109
24851,CsSO3F,-2.397079539
24852,CsDy(MoO4)2,-2.623086552
24853,Cs2Ni(NO3)4,-1.267551739
24854,Cs2Te(MoO4)3,-2.076901775
24855,CsHO,-1.564287277
24856,Cs6Si2NiO8,-2.232372638
24857,Cs5Sb8,-0.369848152
24858,Cs2TlFeF6,-2.802312735
24859,CsGdSiS4,-1.829806753
24860,Cs3NaPb4,-0.261363038
24861,CsH,-0.177508199
24862,Cs4V2S4O3,-1.770539398
24863,CsSO2F,-2.341608776
24864,Cs2SiSe4,-0.890582537
24865,TbCsZnTe3,-1.108655136
24866,Cs2Cu3(P2O7)2,-2.253214812
24867,CsNa2Ge17,-0.07837511
24868,Cs2Th(PS3)3,-1.334933619
24869,CsNb2PS10,-1.210732908
24870,CsVSO6,-2.302391082
24871,Cs4Sb14S23,-0.826383278
24872,CsLi(H2N)2,-0.60045912
24873,Cs3H5Pt,-0.41646549
24874,Cs3H5Pd,-0.329930873
24875,Cs2H4Pt,-0.486773153
24876,Cs2P2H2O7,-2.416616714
24877,Cs2H6Pt,-0.488934739
24878,CsLi2(H2N)3,-0.12109836
24879,Cs3ZnH5,-0.302238825
24880,Cs3MnH5,-0.168932059
24881,CsFeSiO4,-2.595727856
24882,Cs2Mo2O11,-1.657778579
24883,CsMo4(PO4)7,-2.509662723
24884,CsTi(PS4)2,-1.153593737
24885,Tb6Cs2Te7N2,-1.542268076
24886,CsNi2F6,-2.240023243
24887,Cs3Mn3V4O16,-2.332791598
24888,CsPr(MoO4)2,-2.600546669
24889,Cs4Re6Se13,-0.674442045
24890,Cs7Ni4F15,-2.611965511
24891,Cs3HgI5,-1.173043249
24892,CsMoP2O7,-2.643416459
24893,Cs2Re2Se5,-0.712702125
24894,CsXe3O3F13,-0.810589456
24895,CsV3O8,-2.393701403
24896,Cs3Mo5P6O25,-2.52060516
24897,Cs4Re6S13,-1.152547053
24898,CsVP2O7,-2.748288362
24899,Cs2Mn(PO3)4,-2.673274035
24900,Cs2Re2S5,-1.167309721
24901,CsK5Ru2O9,-1.687714151
24902,Cs2PO3F,-2.781565939
24903,CsLiSO4,-2.415137465
24904,Cs2GeTe4,-0.593506444
24905,CsFe2Se3,-0.513937841
24906,Cs2LiGaF6,-3.106863123
24907,Cs3(FeS2)2,-1.114232298
24908,Cs4Zr3Te16,-0.748079332
24909,CsSbOF4,-2.779754189
24910,Cs3Tm2I9,-1.504546909
24911,Cs3Nb2S11,-1.321960712
24912,Cs2TeO4,-1.824900077
24913,Cs3Re3(SI)4,-1.18941195
24914,Cs2Zr(SiO3)3,-3.245228277
24915,CsHo2Cu3Se5,-1.119549794
24916,CsPF6,-3.139966828
24917,CsP4N7,-0.683432768
24918,Cs2Ti2S9,-1.445413544
24919,CsRe6Se8I3,-0.54520285
24920,Cs4Th2P5Se17,-0.82317573
24921,Cs4Zr3S14,-1.579587685
24922,CsPuP2S7,-1.213336721
24923,CsSb3F16,-2.753145129
24924,CsTaSe3,-0.993271085
24925,Cs10(Mo2N5)3,-0.606144768
24926,Cs2NaVF6,-3.177918808
24927,Cs4U2V2O13,-2.927658164
24928,Cs2NiF6,-2.366632156
24929,Cs2KCuF6,-2.592495879
24930,TbCs3F6,-3.571322693
24931,CsLi2(HO)3,-1.759649237
24932,CsNaS,-1.28824006
24933,Cs4Mg3H10,-0.32820921
24934,CsHIF7,-2.262212709
24935,CsUV3O11,-2.705016139
24936,Cs2U2Mo3O16,-2.695946636
24937,Cs4U3Mo3O20,-2.818133841
24938,Li2TiCr(PO4)3,-2.853078636
24939,CsUCuSe3,-1.078892539
24940,CsZrCuSe3,-1.133345422
24941,CsErZnSe3,-1.419685152
24942,CsSr2Ta3O10,-3.377714127
24943,CsPrHgSe3,-1.2425308
24944,CsSmHgSe3,-1.242536072
24945,Cs2HgO2,-1.315488462
24946,Cs2SnF6,-3.072957833
24947,CsNa2(H5O3)3,-1.489600046
24948,CsRb2SiF7,-3.356034884
24949,Li2Ti2MnCr2(PO4)6,-2.814455235
24950,TiMnCr(PO4)3,-2.799018317
24951,Na3Mg4CrSi8(O11F)2,-2.721956712
24952,NaLi5Ti3Cr3(PO4)9,-2.83102039
24953,Cs2Se3,-0.836949494
24954,CsUF6,-3.819816989
24955,CsTmO2,-3.024462221
24956,Cs2Sr2O3,-2.225000899
24957,Cs3HoO3,-2.233483526
24958,CsErO2,-3.010021382
24959,CsDyO2,-2.992489777
24960,CsHoO2,-3.001393257
24961,CsRbO,-1.122411702