id,Composition,FormationEnergy
16623,Ca(Nd2Se3)4,-1.876323134
16624,Ca(Ce2Se3)4,-1.850206667
16625,Ca3Si2O7,-3.473300183
16626,CaUO4,-3.711679305
16627,CaSc2O4,-3.80083689
16628,Ca(NiP)2,-0.855827667
16629,Ca4IrO6,-2.74874775
16630,Ca(MnSb)2,-0.177105543
16631,CaSnO3,-2.697045146
16632,Ca(CoGe)2,-0.47218237
16633,Ca3Sn13Rh4,-0.503639508
16634,Ca(CuGe)2,-0.377298362
16635,CaSiPt,-0.981195365
16636,CaZrO3,-3.687934125
16637,Ca2SnO4,-2.903321484
16638,CaSnF6,-3.423295942
16639,CaPtO3,-2.005912811
16640,CaMgSn,-0.56080219
16641,KCaF3,-3.72206421
16642,CaNbO3,-3.171482736
16643,Ca(GaO2)2,-2.604208999
16644,CaTe2O5,-2.112869154
16645,CaLu2O4,-3.868603159
16646,LiCa2Ge3,-0.573974375
16647,Ca4Fe9O17,-2.274464628
16648,Ca(LuS2)2,-2.480248363
16649,Ca2Ni7P4,-0.749685993
16650,Ca2InN,-0.793501811
16651,CaZnF4,-3.427261857
16652,Ca(Ni2Sn)2,-0.350028875
16653,Ca(PRu)2,-0.934264617
16654,Ca3TeO6,-2.82973504
16655,Ca(SiNi)2,-0.645238234
16656,Ca8H3N4,-0.901530725
16657,Ca9PrF20,-4.165456792
16658,Ca13Y6F43,-4.271811209
16659,Ca20Er10F69,-4.310005342
16660,Ca14MnP11,-1.110977436
16661,CaNb4O8,-2.978326278
16662,CaTl2O4,-1.745134979
16663,Ca2GeS4,-1.781985716
16664,Ca2IrO4,-2.42903409
16665,CaGaGe,-0.529458977
16666,CaMn7O12,-2.147199431
16667,Ca3V2O8,-2.992807659
16668,Ca3Si2Ni3,-0.512345172
16669,CaZn3Ni2,-0.313511075
16670,Ca2CuO3,-2.223584169
16671,CaMgSi,-0.443420742
16672,Ca(SiCu)2,-0.403493152
16673,CaZr4O9,-3.778582375
16674,Ca2Ru2O7,-2.182307745
16675,Ca2Fe9O13,-2.022355948
16676,Ca5Nb5O17,-3.289942659
16677,CaCrF6,-3.305433792
16678,CaSeO3,-2.321718639
16679,CaHf4O9,-3.957840217
16680,Ca(PtO2)2,-1.602185336
16681,CaTaF7,-3.867737638
16682,Ca6Hf19O44,-3.934062173
16683,Ca5(ReO6)2,-2.904235815
16684,Ca5Te3O14,-2.533026859
16685,Ca4P6O19,-3.086966132
16686,Ca(FeP)2,-0.850144549
16687,Ca(PO3)2,-2.97999182
16688,Ca(ClO2)2,-1.413003363
16689,Ca4Mn3O10,-2.614472767
16690,Ca(SiPd)2,-0.80026028
16691,Na4CaSn6,-0.301651119
16692,Ca4TiN4,-1.322703368
16693,CaCdSn,-0.50746485
16694,Ca14MnSb11,-0.975549107
16695,CaSiN2,-1.41917798
16696,Ca(CuSn)2,-0.316831168
16697,Ca10Mg2Sb9,-0.936560577
16698,Ca2CdSb2,-0.798495991
16699,Ca7GeN6,-0.96525562
16700,CaInPt,-0.842708902
16701,Ca3(Cu2Sn)4,-0.288639426
16702,CaInCu4,-0.173399525
16703,CaCuSn,-0.457599433
16704,Ca21(Zn18Ni)2,-0.274027164
16705,CaCu9Sn4,-0.116670795
16706,Ca3(GaN2)2,-0.907571768
16707,Ca2Sb4Pd3,-0.723190795
16708,Ca5(SiN3)2,-1.326455244
16709,CaMg2N2,-0.955036761
16710,Ca6Cu2Sn7,-0.547695149
16711,CaCuSb,-0.67533182
16712,Ca3Ga3Rh2,-0.643539118
16713,Ca3InP3,-0.965926318
16714,CaInPd,-0.711817718
16715,CaCdPb,-0.392139306
16716,Ca(H8O5)2,-1.450496905
16717,CaZrPd,0.760002867
16718,CaTaTc,1.037580292
16719,CaTa2Tl,0.615714127
16720,CaRe2Si,0.80505381
16721,CaHfZn,0.931679378
16722,KCaNi2,0.650003288
16723,Ca2CoW,1.015717906
16724,Ca3SnN,0.671922416
16725,Ca19In8N7,-0.770445846
16726,Ca4Mg3H14,-0.496100669
16727,Ca5Ge3H,-0.645646542
16728,CsCaH3,-0.477523637
16729,Ca(H2N)2,-0.795694631
16730,Ca5(InSb3)2,-0.75629243
16731,Ca2(Fe2O3)11,-1.950098276
16732,Ca5(PPd)6,-0.981847553
16733,CaIn4Ni,-0.268897918
16734,CaPdPb,-0.634792978
16735,Li5Ca7Sn11,-0.498899054
16736,Ca3NdF9,-4.183199723
16737,Ca2Sn2F3,-2.530309144
16738,Ca3Zr17O37,-3.651274716
16739,Ca(La2Se3)4,-2.022517619
16740,Ca5NbN5,-1.213857479
16741,Ca16HN8,-0.871903492
16742,Ca3(HO3)2,-2.120230289
16743,Ca3UN4,-1.473647864
16744,Yb2CaS4,-1.969002614
16745,Ca(HoSe2)2,-1.911430849
16746,Ca(CeTe2)2,-1.404669273
16747,Ca(Ga3Te5)2,-0.480748902
16748,Ca5ThF14,-4.182240037
16749,Ca2NdF7,-4.18909815
16750,Ca2LaF7,-4.270842111
16751,Ca2HoF7,-4.136157605
16752,Ca4ThF12,-4.223485332
16753,Ca(InTe2)2,-0.633500459
16754,YbCa2F7,-3.886089747
16755,Ca4Te5O14,-2.315705464
16756,Ca5CuPb3,-0.438724029
16757,Ca5MnPb3,-0.312930981
16758,Ca22H51Rh11,-0.622440188
16759,Yb15(Ca7S12)4,-2.255697088
16760,Ca17(Y7S19)2,-2.239114143
16761,Ca5FePb3,-0.248349411
16762,Ca(PPd)2,-0.855219295
16763,Ca11Cr7O28,-2.668774924
16764,Ca(MnP)2,-0.68697657
16765,Ca4(H4Rh)3,-0.678574768
16766,Cs2CaH4,-0.417285028
16767,Ca4Mn4O11,-2.535395078
16768,CaHgO2,-2.106647368
16769,SrCaSi,-0.453756039
16770,CsCaF3,-3.749472088
16771,CaGaN,-0.849088412
16772,Ca19(Mg4H27)2,-0.548981687
16773,Ca(CuP)2,-0.558448421
16774,Ca(ZnSb)2,-0.448198938
16775,Ca(CdSb)2,-0.465623872
16776,CaCu2O3,-1.732981307
16777,Ca2HfO4,-3.666772899
16778,SrCaI4,-1.60652364
16779,CaGd2O4,-3.680310424
16780,SrCa2I6,-1.624029144
16781,Tb2CaO4,-3.730938763
16782,CaCdO2,-2.370924701
16783,CaPbI4,-1.16160834
16784,Cs2CaO2,-1.970574117
16785,Ca(ClO3)2,-1.328235782
16786,CaY2O4,-3.756970585
16787,CaSm2O4,-3.643438732
16788,CaTm2O4,-3.833569951
16789,Ca(CuO)2,-1.687366819
16790,Sr3CaI8,-1.618670462
16791,Sr2CaI6,-1.65233532
16792,Ca3CdO4,-2.853211848
16793,EuCaO2,-3.180394664
16794,Ca6HfO8,-3.493049432
16795,Ca2CeO4,-3.567831648
16796,Ca2PrO4,-3.136995001
16797,CaPt3O4,-1.407038918
16798,Ca(LaI4)2,-1.483476932
16799,CaLaI5,-1.521710307
16800,Ca4I6O,-1.867564045
16801,Ca3Zr2O7,-3.580357232
16802,Eu2CaO3,-3.145277001
16803,CaCeO3,-3.635961265
16804,CaPrO3,-3.027728954
16805,Ca3In2O6,-2.7150044
16806,CaGd4O7,-3.763112282
16807,Ca2P6O17,-2.87558614
16808,Ca19(Cu12O23)2,-1.948927876
16809,CaCd3O4,-1.880818027
16810,Ca3V10O25,-2.597782181
16811,Ca3MnO4,-2.971204895
16812,Ca11Tl9O24,-2.220614852
16813,Ca7Cu17O24,-1.6131315
16814,Ca3Tl4O9,-1.949001871
16815,CaMn7O8,-2.13322928
16816,Ca5Mn8O13,-2.472346267
16817,Ca5MnO6,-3.088449879
16818,Ca3Ta2O8,-3.493737153
16819,Ca5Ta4O15,-3.42455285
16820,Ca4Ta2O9,-3.461924604
16821,Ca2In2O5,-2.563329897
16822,CaPbI6,-0.790917118
16823,Ca3Pb3I14,-0.962273926
16824,CaGeN2,-0.825549086
16825,Ca9La5Cl33,-2.736879334
16826,CaPdF6,-2.634522161
16827,CaPdF4,-2.854328746
16828,CaPtF6,-2.697671743
16829,CaCuP,-0.865961494
16830,CaSbPt,-0.98341445
16831,Ca4PtO6,-2.727383457
16832,Ca(PRh)2,-0.968779637
16833,Ca2TlPb,-0.49335128
16834,CaLaMg2,-0.112865809
16835,Ca2MgTl,-0.290260134
16836,CaZrRh2,-0.573978685
16837,CaMgPb,-0.448470948
16838,CaLuRh2,-0.672817967
16839,CaSnRh2,-0.559937705
16840,Ca2CdSn,-0.566196772
16841,LiCa2Rh,-0.24340443
16842,CaLaHg2,-0.568406194
16843,PmCaCd2,-0.366820994
16844,PmCaHg2,-0.546812017
16845,PmCaPd2,-0.752482117
16846,PmCaRh2,-0.537824399
16847,PmCaPt2,-1.016505077
16848,PmCaZn2,-0.303995889
16849,CaCeMg2,0.06354046
16850,CaLaZn2,-0.313140939
16851,CaSmCd2,-0.361984113
16852,CaPuRh2,0.077673093
16853,CaYRh2,-0.593773635
16854,NaCa2Tl,-0.238363111
16855,Ca2CdPb,-0.51041942
16856,CaErRh2,-0.644167325
16857,EuCaIn2,-0.470409176
16858,Li2CaIn,-0.282082453
16859,Li2CaPb,-0.422637815
16860,CaNdHg2,-0.547000494
16861,Li2CaSn,-0.508255845
16862,Li2CaSi,-0.321539725
16863,Li2CaGe,-0.424579711
16864,CaLaCd2,-0.381727409
16865,CaSmHg2,-0.542596843
16866,CaPrZn2,-0.30282015
16867,CaCeHg2,-0.419717528
16868,CaSmZn2,-0.30090223
16869,CaCdHg2,-0.37371146
16870,Ca2HgPb,-0.607724055
16871,CaDyRh2,-0.62242834
16872,CaNdZn2,-0.302848191
16873,CaYHg2,-0.539110115
16874,CaTmPt2,-1.083246276
16875,CaNdRh2,-0.513587284
16876,CaDyHg2,-0.522164745
16877,Ca2SnHg,-0.66456272
16878,CaCdPd2,-0.572568732
16879,CaSmRh2,-0.553400915
16880,CaThRh2,-0.65568738
16881,CaHoRh2,-0.633178895
16882,Ca2SnS4,-1.357196382
16883,CaSnS3,-1.172818088
16884,Ca4SnS6,-1.888626948
16885,Ca3Sn2S7,-1.572409999
16886,CaSn2S5,-1.070813667
16887,Ca3SnS5,-1.725127488
16888,Ca6Sn5S16,-1.143064169
16889,Ca3Sn4S11,-1.227384826
16890,Ca7Sn3S13,-1.684128259
16891,Ca5Sn4S13,-1.176851371
16892,Ca4Sn5S14,-1.207821885
16893,CaMgHg2,-0.423412621
16894,LiCa2Tl,-0.29453422
16895,CaInHg2,-0.39153534
16896,LiCa2Hg,-0.30080335
16897,LiCa2In,-0.31740115
16898,CaPrHg2,-0.548504373
16899,LiCa2Ir,-0.226288648
16900,CaNdCd2,-0.368452064
16901,CaPrCd2,-0.371332658
16902,CaMgTl2,-0.278019296
16903,CaGdHg2,-0.523277411
16904,Ca2MgIn,-0.321624909
16905,Ca2Tl2O5,-2.107504787
16906,LiCa2Cd,-0.196057335
16907,LiCa2Ga,-0.268500014
16908,Ca2TlCd,-0.416352148
16909,Ca2ZnRh,-0.288152355
16910,Ca2Pt3O8,-1.815810022
16911,Ca2ZnN2,-0.856841445
16912,CaSiPd,-0.789863298
16913,Ca10V6O25,-3.00588701
16914,Ca2PN3,-1.30962056
16915,Ca3Tl2O6,-2.332880205
16916,Ca3ReO6,-2.94247109
16917,Ca(MgSb)2,-0.717883088
16918,Ca(ZnP)2,-0.700605083
16919,Ca(CdP)2,-0.571318993
16920,CaNiTe,-0.369262593
16921,LiCaRh,0.071034617
16922,CaCdSi,-0.124822247
16923,SrCaTl2,-0.428081333
16924,LiCaO3,-1.666686881
16925,LiCa2Mg,-0.034769854
16926,RbCaO3,-1.501773813
16927,NaCaTl2,-0.260084776
16928,NaCa2In,-0.260450341
16929,Ca2CdIn,-0.43730453
16930,SrCaO3,-2.197352657
16931,SrCa3O4,-3.225691538
16932,CaPS3,-1.459462881
16933,SrCaHg2,-0.533763615
16934,SrCaIn2,-0.450790325
16935,NaCaPb2,-0.332244684
16936,KCaO3,-1.494238599
16937,Ca7(H6Cl)2,-0.972647886
16938,CsCaO3,-1.508866473
16939,RbCaSb,-0.808550807
16940,Ca3SnH2,-0.684646839
16941,CaTl2Cd,-0.227812772
16942,CaTmCd2,-0.326048294
16943,CaMoN3,-0.759094479
16944,CaReN3,-0.752080994
16945,CaWN3,-0.869923193
16946,CaTcN3,-0.589709659
16947,CaRhF6,-2.765996066
16948,CaTlF3,-3.320922468
16949,CaTlCl3,-2.177752356
16950,RbCaCl3,-2.595525142
16951,RbCaI3,-1.549168282
16952,CsCaI3,-1.60657136
16953,KCaCl3,-2.598793108
16954,CaTcO3,-2.38751522
16955,Ca3(CoN2)2,-0.28071027
16956,CaFe2F10,-2.717144081
16957,CaCr4O8,-2.345583015
16958,CaMn4O8,-2.147777115
16959,Ca2CrN3,-0.665735124
16960,Ca5(CrN3)2,-1.008199446
16961,Ca11(FeN5)2,-0.890119226
16962,Ca(TiS2)2,-1.786061856
16963,Ca(VS2)2,-1.452594904
16964,CaCoN2,0.065128612
16965,Ca(NiS2)4,-0.799220357
16966,Ca(CrS2)4,-1.200926173
16967,CaV2S5,-1.397217397
16968,Ca3(CrN3)2,-0.384468765
16969,CaNi2S5,-1.004388249
16970,CaV4O8,-2.602200452
16971,Ca(CoO2)4,-1.620230706
16972,Ca(VS2)4,-1.35561619
16973,Ca(NiN)2,-0.159843363
16974,CaSb2S5,-0.851939788
16975,CaCu2F8,-2.381940863
16976,Ca11(MnN5)2,-0.942804654
16977,Ca(MoO3)2,-2.34495855
16978,Ca(SnN)2,-0.210326079
16979,Ca(CuN)2,0.102573961
16980,Ca2CuN2,-0.618786509
16981,Ca(MnN)2,-0.255390486
16982,Ca(WN)2,-0.158901015
16983,Ca5(MnN3)2,-0.925427291
16984,CaSnF4,-3.374574166
16985,Ca2NiN2,-0.756048329
16986,Ca(CoN)2,-0.084824807
16987,Ca2SnN2,-0.684909498
16988,CaCoF6,-2.790947825
16989,CaNiF6,-2.536363048
16990,CaFeF6,-2.998072581
16991,CaTiS2,-1.875869014
16992,Ca7(TiS2)8,-1.901601612
16993,Ca3(TiS2)8,-1.914399163
16994,Ca5(TiS2)8,-1.932250938
16995,Ca3(TiS2)4,-1.930231461
16996,Ca(NiS2)2,-0.99071669
16997,Ca(CrN)2,-0.258561001
16998,CaSn5O7,-1.834018071
16999,Ca2Cr9O13,-2.275943222
17000,Ca2Ni9O13,-1.238915464
17001,CaSnF5,-3.277026301
17002,Ca3V2O7,-3.006632876
17003,CaMo2O7,-2.319389932
17004,CaSb3O7,-2.041050937
17005,CaW3O7,-2.048333957
17006,SrCaO2,-3.159599111
17007,CaGaSiH,-0.410691398
17008,CaGaSnH,-0.409607003
17009,CaGaGeH,-0.465654322
17010,Ca3Ga2(GeO4)3,-2.672389063
17011,Ca3ZnGe5O14,-2.500860531
17012,CaMg3SiN4,-1.1789189
17013,CaMg(SiO3)2,-3.280121467
17014,CsCa10(PO4)7,-3.303389249
17015,K2Ca3Si3O10,-3.214408276
17016,K2Ca4Si8O21,-3.306202969
17017,Li2Ca2Si2O7,-3.208041523
17018,LiCa3Si2N5,-1.312238603
17019,Rb2Ca2(SiO3)3,-3.185069527
17020,NaCa(PO3)3,-2.878638743
17021,CsCa2Ta3O10,-3.343023335
17022,KCa(PO3)3,-2.914223511
17023,Sr2CaTeO6,-2.821677368
17024,CaZn(GeO3)2,-2.380263823
17025,LiCaGaF6,-3.482998991
17026,Ca3Ga2(SiO4)3,-3.158142688
17027,Ca3In2(SiO4)3,-3.096955448
17028,NaCaPO4,-3.053388175
17029,Sr2CaUO6,-3.59286459
17030,Ca2Ta2O6F,-3.471224522
17031,NaCa3IrO6,-2.511351758
17032,CaCuP2O7,-2.64559758
17033,Ca3Zn3(TeO6)2,-2.334832961
17034,Sr2CaIrO6,-2.560163475
17035,Ca3HfSi2O9,-3.600436464
17036,Ca3ZrSi2O9,-3.556326948
17037,Ca3Si2SnO9,-3.216236248
17038,K2Ca2(SO4)3,-2.651939476
17039,Li2Ca2Ta3O10,-3.22520013
17040,K4CaU3O12,-3.294566375
17041,Li2CaHfF8,-3.904472913
17042,LiCaPO4,-3.121630796
17043,CaTi4(PO4)6,-3.118619844
17044,Ca10P6SeO24,-3.290048402
17045,CaCu3(GeO3)4,-1.83562359
17046,CaTiGeO5,-3.066364575
17047,CaCu3(SnO3)4,-1.848829798
17048,CaZn2(PO4)2,-2.721116844
17049,Na3Ca2TaO6,-2.899150058
17050,Ca2ZnGe2O7,-2.581149317
17051,Sr2CaWO6,-2.990567443
17052,CaMnP2O7,-2.922812894
17053,CaCoP2O7,-2.758330373
17054,Ca2FeMoO6,-2.644455306
17055,Ca2CoSi2O7,-3.091685992
17056,Ca3FeRhO6,-2.521038276
17057,CaFe(SiO3)2,-3.067524807
17058,CaCo(SiO3)2,-2.976990881
17059,Sr2CaMoO6,-2.896689355
17060,CaNiP2O7,-2.684293562
17061,Ca2FeWO6,-2.543160616
17062,Ca2MnWO6,-2.787791762
17063,Ca2NiWO6,-2.556875594
17064,CaCrP2O7,-2.88715261
17065,Ca2PdWO6,-2.189888225
17066,Ca2CoWO6,-2.637504319
17067,CaSi2NiO6,-2.904858104
17068,Ca3MnZnO6,-2.686712017
17069,NaCaVO4,-2.787477561
17070,Ca2MgWO6,-3.005473676
17071,CaCr(Si2O5)2,-3.178351523
17072,CaMn(SiO3)2,-3.129870768
17073,CaNi3(P2O7)2,-2.418604021
17074,Ca3Fe2(SiO4)3,-3.080919176
17075,Ca3Mn2(SiO4)3,-3.062274243
17076,Ca3Cr2(SiO4)3,-3.200626481
17077,CaV2CoO7,-2.469648903
17078,CaMgV2O7,-2.805692639
17079,NaCa9Mn(PO4)7,-3.244311732
17080,Na2Ca2Ta3O10,-3.155187078
17081,RbCa2Nb3O10,-3.123963726
17082,Ca3Sc2(GeO4)3,-3.124522782
17083,CaTi4(CuO4)3,-2.71320935
17084,Ca3Cu2(ClO2)2,-2.321049111
17085,Ca2Cu(ClO)2,-2.411609594
17086,CaH4SO6,-2.077153496
17087,Ca2MgP2(H2O5)2,-2.670749621
17088,K2CaH2S2O9,-2.357014424
17089,NaCa2Si3HO9,-3.130847021
17090,CaH12(ClO3)2,-1.572116722
17091,CaMgNiH4,-0.492765261
17092,CaP2(HO)4,-1.818027936
17093,CaPH3O4,-2.236999666
17094,CaP2(HO2)4,-2.371478166
17095,CaH8(ClO2)2,-1.66727245
17096,CaPH5O6,-2.154350259
17097,CaPHO4,-2.838932804
17098,CaP2H6O7,-2.012167639
17099,CaH4SeO6,-1.753399952
17100,CaTi4(FeO4)3,-2.975745835
17101,Ca2FeSbO6,-2.611063616
17102,Ca2MnGaO5,-2.732725454
17103,K2CaNi(NO2)6,-1.294172292
17104,Na2CaV4O12,-2.546067027
17105,Ca3MnNiO6,-2.532562329
17106,Ca2MnP2(H2O5)2,-2.551748318
17107,CaMnSiHO5,-2.713349439
17108,CaCrH2O5,-2.082068183
17109,CaLaMn2O6,-2.785341187
17110,CaVNiP2O9,-2.676528935
17111,CaV2P2O9,-2.913510043
17112,Ca2FeReO6,-2.606363543
17113,CaLaTiCrO6,-3.385922494
17114,CaTiFe(PO4)3,-2.942943398
17115,Ca2MnIrO6,-2.332020086
17116,Ca5P3ClO12,-3.329321076
17117,LiCaTa2O6F,-3.418370272
17118,NaCaTaTiO6,-3.318129426
17119,CaHoMn2O6,-2.799268281
17120,CaLaMnFeO6,-2.764784681
17121,LiCaPrTeO6,-2.74107783
17122,Ca2Nd2Nb3FeO14,-3.266670469
17123,CaPrMn2O6,-2.754931848
17124,CaLaTiMnO6,-3.276181274
17125,CaGa2Cu3(SbO6)2,-1.846766637
17126,Ca5P3HO13,-3.248839534
17127,CaNdTiMnO6,-3.251558093
17128,Ca10Si3S3(ClO12)2,-3.119676518
17129,Ca2Si3PbO9,-3.180617389
17130,CaSb10(S3O5)2,-1.498445417
17131,Ca3CuIrO6,-2.306066761
17132,CaCo3(P2O7)2,-2.52432409
17133,CaCr2Cu3(SbO6)2,-1.890983615
17134,Ca2NiOsO6,-2.217564457
17135,CaMn4(CuO4)3,-1.738778937
17136,Na13Ca7S12(O16F)3,-2.616638965
17137,Ca4P2O,-1.781617018
17138,Ca3Si(ClO2)2,-3.290844766
17139,CaMg3Si3O10,-3.254252626
17140,YbCaInSe4,-1.209387739
17141,YbCaInS4,-1.649275598
17142,Ca2SiH2O5,-2.861420536
17143,Na2Ca(PO3)4,-2.822751068
17144,CaV4(CuO4)3,-2.090604901
17145,Na4Ca(PO3)6,-2.767754837
17146,SrCaSiO4,-3.448293586
17147,Ca2PClO4,-3.273514532
17148,CaMg2(SO4)3,-2.627588718
17149,Ca2P2H8O11,-2.255641088
17150,CaMg(SiO)2,-1.662669329
17151,CaU(SeO4)2,-2.507322615
17152,CaZr(PO4)2,-3.297269247
17153,Ca6Si3H2O13,-3.220074191
17154,Ca3Nb4(O6F)2,-3.375393265
17155,CaZnSi3O8,-3.126625418
17156,SrLi4Ca(SiO4)2,-3.050616549
17157,Ca3CoRhO6,-2.397356823
17158,Ca3Ge(ClO2)2,-2.929992297
17159,Na2CaSiO4,-2.815959703
17160,CaNb2(P2O7)3,-2.881150515
17161,Ca11Si4SO18,-3.389625093
17162,Ca2Th(Si2O5)4,-3.449392257
17163,LiCaCoF6,-3.097450826
17164,Ca9In(PO4)7,-3.247418291
17165,K2CaP2O7,-2.953065326
17166,CaS2(ClO3)2,-2.199480922
17167,Li2Ca4Si4O13,-3.319944266
17168,Na2CaMg(PO4)2,-2.973477751
17169,Li6CaCeO6,-2.627950505
17170,CaTaNO2,-2.770636656
17171,Ca2SiCl2O3,-3.19706022
17172,CaZr4(PO4)6,-3.270083577
17173,Na2Ca3Si3O10,-3.236850725
17174,CaSi2(NO)2,-2.417114489
17175,Sr3CaRu2O9,-2.497515508
17176,KCa2Nb3O10,-3.171081286
17177,CaP2Xe5F22,-2.020340854
17178,K2Ca(NO2)4,-1.331660355
17179,CaNb2P2O11,-3.075202099
17180,Li2CaTa2O7,-3.200787757
17181,Na2Ca3Ta2O9,-3.145292188
17182,Ca3Mg(SiO4)2,-3.336742461
17183,Na2Ca3(Si3O8)2,-3.263481298
17184,Ca4Si6Pb6Cl2O21,-2.819314185
17185,CaMgGeO4,-2.888531312
17186,Ca3CuRhO6,-2.321238992
17187,Ca2CoTeO6,-2.382308859
17188,Rb2Ca2(SO4)3,-2.657285159
17189,CaFeClO2,-2.478051764
17190,Ca2MgSi2O7,-3.39166573
17191,CaH8(NO5)2,-1.47111333
17192,LiCaNiF6,-2.94420465
17193,Sr3CaIrO6,-2.724876295
17194,CaLaGaO4,-3.241832031
17195,Ca4Si2O7F2,-3.648559552
17196,Li2Ca2Si5O13,-3.253658258
17197,Ca2Zr(SiO3)4,-3.466732098
17198,Ca3Ta4(O6F)2,-3.617222183
17199,Ca7Cu(PtO6)2,-2.499002365
17200,Ca2NbInO6,-3.013392656
17201,Eu2Ca(CuO3)2,-2.361829016
17202,Na2CaP2O7,-2.908543796
17203,Ca3Mn2(Si2O7)2,-3.116571462
17204,KCa10V7O28,-3.006100039
17205,CaMn6SiO12,-2.398914373
17206,LiCaCrF6,-3.514829105
17207,Rb2CaV2O7,-2.657027469
17208,Ca3Fe2(SeO3)6,-1.942622132
17209,Ca5V3O12F,-3.138028816
17210,CaFe3P3O13,-2.592216074
17211,Ca9Cr(PO4)7,-3.264587225
17212,Ca3WCl2O5,-2.928029833
17213,CaCr2(PO4)2,-2.768193583
17214,Ca3Fe2Cl2O5,-2.560737479
17215,Ca3Cr3(PO4)4,-2.926670874
17216,Ca2MnSbO6,-2.61471529
17217,CaV2(PO5)2,-2.82478422
17218,Ca9Fe(PO4)7,-3.238842246
17219,KCa9Mn(PO4)7,-3.248192176
17220,Ca2VClO4,-3.020235217
17221,Cs5CaNi4F15,-2.766096423
17222,CaMn4(SiO3)5,-2.944908428
17223,CaV2CuO7,-2.3731513
17224,Ca5W(N2O)2,-1.730836005
17225,Li4Ca3(SiN3)2,-1.140369055
17226,CaU(MoO4)4,-2.518965688
17227,SrCa2WN4,-1.246222234
17228,Ca7NbSi2N9,-1.360244376
17229,Li3CaMnN3,-0.80128714
17230,LiCa10MgSb9,-0.973508922
17231,Ca3Zn2(CuP2)2,-0.793198437
17232,LiCa2InGe2,-0.582646031
17233,LiCaGaN2,-0.850455407
17234,Ca2Zn2CuP3,-0.765705596
17235,Ca2TaMnO6,-3.130930656
17236,Ca51W12N56O3,-1.110809207
17237,Ca2MnFeO5,-2.590071795
17238,CsCa2Nb3O10,-3.174015026
17239,K3CaV5O15,-2.542142878
17240,CaCu3(RuO3)4,-1.484063699
17241,CaTiSiO5,-3.493511736
17242,Ca3Cu3(PO4)4,-2.633738659
17243,CaSi4CuO10,-3.020396242
17244,SrCa2In2Ge,-0.436260336
17245,Ca3Co(SeO3)4,-2.099233086
17246,Ca2ZnSi2O7,-3.171991283
17247,Ca3Sc2(SiO4)3,-3.614179362
17248,NaCa3RuO6,-2.58737483
17249,CaCu(GeO3)2,-2.157199014
17250,Ca2FeClO3,-2.69175188
17251,LiCaUF8,-3.829594312
17252,CaP(H2O3)2,-2.102656457
17253,LiCa3RuO6,-2.64701163
17254,NaCaSiHO4,-2.816985377
17255,CaZn2(PO)2,-0.957756948
17256,Na2Ca(SO4)2,-2.543667598
17257,Ca3Nb2CoO9,-3.077178446
17258,Ca3Fe2(GeO4)3,-2.592626059
17259,CaHClO,-2.495793926
17260,CaP2H2O7,-2.624536898
17261,CaSiSnO5,-2.95382802
17262,Ca4Mg4Fe3H22,-0.510683699
17263,CaZrGeO5,-3.155965022
17264,CaP(HO3)2,-1.91838606
17265,Ca3ScCoO6,-3.049415473
17266,Ca3Mg3(PO4)4,-3.212635154
17267,Ca5P3O12F,-3.440796449
17268,Ca2GaFeO5,-2.684485545
17269,CaMgSiO4,-3.38252452
17270,Ca4YFe5O13,-2.616511523
17271,Ca5Si2SO12,-3.280976585
17272,Ca2Zr5Ti2O16,-3.731022225
17273,RbCa2Ta3O10,-3.337619377
17274,CaZn(SiO3)2,-3.048436525
17275,Ca3Y2(GeO4)3,-3.100608382
17276,Ca4Zn2Cu3P5,-0.808132094
17277,KCaNd(PO4)2,-3.270290985
17278,Na2CaSn2(GeO4)3,-2.327751797
17279,LiCa3Zr3TaO12,-3.554743163
17280,CaNd2Ti2ZnO9,-3.422625069
17281,Ca16Zr9Ta7N7O41,-3.241662628
17282,Ca2Ga2Si(HO4)2,-2.676590102
17283,Na3Ca2Ta3Ti2O15,-3.269977063
17284,KCa10(PO4)7,-3.312890618
17285,Ca10Pr4Cu24O41,-1.875292473
17286,Ca3TaGa3(SiO7)2,-3.098614467
17287,CaGd2Zr(GaO3)4,-3.088684824
17288,Ca5Mg5P5O21F4,-3.294735435
17289,Ca10P6SO24,-3.306198695
17290,CaPr2Ti2ZnO9,-3.411935767
17291,Ca9LaTi10O30,-3.59260015
17292,Ca6Ga6Si3(HO12)2,-2.652688222
17293,CaNb2Ga2(CuO4)3,-2.225970047
17294,Na3Ca7Ta3Ti7O30,-3.41626823
17295,Ca2YFe3(SnO6)2,-2.562783449
17296,CaLa3Mn4O12,-2.90533871
17297,NaCa2V3(CuO6)2,-2.346431046
17298,CaLaMnSnO6,-2.816371271
17299,CaLa9Ti5Cr5O30,-3.411655174
17300,Ca3La5Mn7FeO24,-2.841853361
17301,Ca9LaTi9MnO30,-3.510972691
17302,Na3Ca10Mn7V12O48,-2.725899925
17303,Ca3Ga2Si(SnO6)2,-2.829094382
17304,Ca19Si6S6(ClO24)2,-3.114421756
17305,Ca14La6Mg3Ti17O60,-3.603355637
17306,Ca10La6Mg3Ti13O48,-3.610829501
17307,CaGdTh(PO4)3,-3.434223072
17308,Ca5Si2HO9F,-2.516228172
17309,Na7Ca3Ta7Ti3O30,-3.21973447
17310,Na3Ca7Ti7Nb3O30,-3.294734586
17311,Na2CaTi2(GeO4)3,-2.741078855
17312,Na5Ca6Nd5Zr16O48,-3.60410088
17313,CaH4(N3O)2,-0.888856057
17314,Ca2H2S2O9,-2.441526486
17315,Ca3Si2(H3O5)2,-2.578285468
17316,CaH4(ClO)2,-1.853889491