id,Composition,FormationEnergy
17993,K4CdCl6,-2.057412547
17994,KCdCl3,-1.813099518
17995,Cd7(P2Cl3)2,-0.85723012
17996,YCd3,-0.300648609
17997,Cd5P3ClO12,-2.20512417
17998,CdF2,-2.502766837
17999,CdP2H6O7,-1.709049607
18000,Cd(FeO2)2,-1.769557717
18001,TmCd,-0.309124682
18002,Cd(NO3)2,-1.094316586
18003,TlCdI3,-0.611748572
18004,Na14Cd2O9,-1.484886116
18005,Cd3(PO4)2,-2.250737984
18006,Cd(IO3)2,-1.042909339
18007,Cd2P2O7,-2.366351361
18008,K2CdO2,-1.439693813
18009,K2CdN12,-0.187688862
18010,Na6CdCl8,-1.989365038
18011,TlCdCl3,-1.432535674
18012,CdI2,-0.591527977
18013,CdTeO3,-1.544846372
18014,K4CdP2,-0.354952742
18015,Rb2CdO2,-1.379368067
18016,Tl3Cd2I7,-0.637577331
18017,Cd(HO)2,-1.32744109
18018,CeCd3,-0.217405625
18019,Na2CdCl4,-1.837286068
18020,Na4Cd3Se5,-0.868414218
18021,Cd4OF6,-2.320327657
18022,Cd4Sb2I3,-0.346440247
18023,TbCd2F8,-2.975557861
18024,Cd2Ge7O16,-2.013427618
18025,Cd2P3I,-0.227434222
18026,Cd2P3Cl,-0.459343364
18027,Cd2P6O17,-2.474339643
18028,Cd3(ClO)2,-1.441405777
18029,Cd3PCl3,-0.998120868
18030,Cd7P10,-0.079410214
18031,Yb2CdS4,-1.433159758
18032,Tl2(CdSb)3,-0.073325651
18033,Cd4P2Cl3,-0.81012758
18034,Rb2CdCl4,-1.94206371
18035,Rb2Cd3Te4,-0.695741712
18036,Er2CdS4,-2.055540482
18037,EuCd2,-0.33952191
18038,CdHg2,0.028645347
18039,La2Cd17,-0.187542696
18040,Mg3Cd,-0.07812728
18041,MgCd3,-0.067855329
18042,Na2CdSn,-0.21624347
18043,ZnCdPt2,-0.45491946
18044,ScCd3,-0.223252646
18045,SmCd2,-0.33916372
18046,SrCd,-0.33701743
18047,TbCd2,-0.324678572
18048,TbCd3,-0.28687481
18049,Th6Cd7,-0.137013312
18050,TiCd,-0.048015471
18051,Ti2Cd,-0.068164744
18052,TmCd3,-0.255831484
18053,Cd5Cu2,0.0227444
18054,Cd2Te2O7,-1.534280599
18055,Cd2(TeO3)3,-1.524106313
18056,Cd2PCl2,-0.936761815
18057,ScCd7,-0.117375157
18058,Sr11(CdSb2)6,-0.815005863
18059,Cd(GaSe2)2,-0.315437223
18060,Ce2CdS4,-1.890020222
18061,Ce2CdSe4,-1.375182816
18062,Tb2CdS4,-1.950617597
18063,Cd(GaO2)2,-2.051626641
18064,Ho2CdS4,-1.922867067
18065,Sm2CdS4,-1.946345973
18066,Pr2CdSe4,-1.434996144
18067,Y2CdS4,-2.052441743
18068,La2CdS4,-2.045099914
18069,Cd(Ga3Te5)2,-0.340655169
18070,La2CdSe4,-1.54475457
18071,Nd2CdSe4,-1.432674526
18072,Pr2CdS4,-1.937301815
18073,CdPbF6,-2.387955107
18074,Nd2CdS4,-1.941554722
18075,Li2CdCl4,-1.843327825
18076,Sm2CdSe4,-1.426151635
18077,Cd2GeO4,-1.790114576
18078,Na2CaPO4F,-3.026780345
18079,KCd13,-0.06509299
18080,NaCaNb2O6F,-3.206266847
18081,Ho2CdSe4,-1.514556096
18082,Tm2CdS4,-2.057712585
18083,Cr2CdS4,-1.074607845
18084,NaCdF3,-2.694372168
18085,Cd(GaS2)2,-1.067410374
18086,Cd2SiO4,-2.243580915
18087,Cd(PO3)2,-2.459667176
18088,Yb2CdPd2,-0.770329038
18089,K2CdPb,-0.19076593
18090,Ti4Cd(CuO4)3,-2.468488787
18091,Cd2Ru2O7,-1.429138551
18092,CsSmCdSe3,-1.373048473
18093,Cd4GeS6,-0.905007697
18094,CdSnP2,-0.100365035
18095,Tb6CdS10,-2.248372079
18096,Er2CdSe4,-1.48599629
18097,CdPS3,-0.808967899
18098,NaCa2ScZn2(SiO3)6,-3.143322927
18099,Ca18Nd2Si3P9(O16F)3,-3.464022494
18100,NaCa9Ti9Nb(SiO5)10,-3.445049696
18101,Cd2Si(P2O7)2,-2.582541786
18102,SrCd(PO3)4,-2.734894407
18103,K2CdSiO4,-2.374831314
18104,Cd3Se3O10,-1.397276986
18105,Sr5Cd3,-0.247551503
18106,Ca7NbSi4O17F,-3.498412978
18107,Nb2Cd2O7,-2.477383558
18108,V2CdO6,-2.181537175
18109,Ta2Cd2O7,-2.709407599
18110,Na2Cd3(P2O7)2,-2.447526253
18111,CdP2Xe5F22,-1.837804391
18112,Na5Ca4P4O16F,-3.052416441
18113,CdHg2SeO6,-1.088372938
18114,Na4Cd2Si3O10,-2.556231275
18115,MnCdF5,-2.657615085
18116,Tl2Cd2(SO4)3,-1.903388922
18117,CdSbS2Cl,-0.959594274
18118,KCa12Si4S2O26F,-3.284005799
18119,Li2CdSiO4,-2.552072168
18120,Ca2Mg5Si8(O11F)2,-3.37327458
18121,LiCdCoF6,-2.510268353
18122,Na2Cd(SO4)2,-2.158324426
18123,RbZrCdF7,-3.450612388
18124,Rb2CdSiO4,-2.335248808
18125,Ca2CuTe4(ClO5)2,-1.929257232
18126,Cd4Te6Cl6O13,-1.504266816
18127,CrCdF6,-2.628012641
18128,Cd(InS2)2,-0.983877937
18129,CdSeO3,-1.431514032
18130,Ta2Cd(P2O7)3,-2.806074703
18131,CdSb6(S2I)4,-0.611526311
18132,CdHg2SO6,-1.466421058
18133,K2Cd(NO2)4,-1.215867952
18134,Na2CdSnS4,-1.123188847
18135,V3CdO7,-2.290487288
18136,ZrTlCdF7,-3.22990849
18137,CdMoPO6,-2.274957253
18138,V2Cd(PO5)2,-2.494893221
18139,V3Cd5P6O25,-2.452625437
18140,KV3Cd4O12,-2.054881348
18141,Na2CaVP2O9,-2.841407783
18142,Sr3V4CdO14,-2.722474861
18143,Cd5Mo2(P2O7)4,-2.431975646
18144,RbV3Cd3O11,-2.117023034
18145,Sm11Cd45,-0.268241517
18146,LiCa9Mn(PO4)7,-3.240505955
18147,Cs2Cd3Te4,-0.73045218
18148,La23Cd4Pt7,-0.629799019
18149,VCdClO3,-2.013927281
18150,CdSO4,-1.949159499
18151,Nd23Cd4Rh7,-0.449216115
18152,Cs2CdI4,-1.183617725
18153,Y4CdRu,-0.326717055
18154,Tb4CdRh,-0.491248654
18155,CsCdCl3,-1.831286444
18156,Cd4P2I3,-0.340715636
18157,Yb2CdSb2,-0.805320716
18158,Ho4CdRh,-0.500941078
18159,Pr6Cd4Pd13,-0.736733484
18160,K14(Tl7Cd3)3,-0.128741018
18161,SrCd11,-0.138466955
18162,Cd3N2,0.40212451
18163,Tl4CdI6,-0.643254488
18164,Ho4CdCo,-0.253788421
18165,CdN6,0.116882633
18166,Tb4CdCo,-0.245229644
18167,Dy4CdRh,-0.498076781
18168,La4CdRu,-0.310181045
18169,Dy2CdSe4,-1.516521438
18170,Dy4CdCo,-0.251446949
18171,K2Cd2Te3,-0.747678924
18172,PrCdPd,-0.670808176
18173,SmCd,-0.317929975
18174,CsCeCdSe3,-1.33587339
18175,KVCdO4,-2.163408187
18176,V2Cd4(TeO5)3,-1.804247721
18177,EuCd,-0.334468113
18178,V2Cd6Se5O21,-1.624588405
18179,La4CdCo,-0.207574893
18180,Pr13Cd58,-0.264504517
18181,La13Cd58,-0.293106445
18182,Nd13Cd58,-0.256102334
18183,Sm13Cd58,-0.238107208
18184,Y13Cd58,-0.208840179
18185,EuCd11,-0.126481953
18186,CdPtF6,-2.026977545
18187,Cd2Os2O7,-1.490536973
18188,Cd2SnO4,-1.735654127
18189,Gd2CdPd2,-0.770918901
18190,Cd(HN2)4,-0.115249756
18191,KCa4Si8H16O28F,-1.896630174
18192,Na2Cd3Si3O10,-2.508738902
18193,Cd27Pd8,-0.023729232
18194,Cd(In2I3)2,-0.505611841
18195,CaSmCuClO3,-2.727006456
18196,CeCd2,0.183369537
18197,TiCdF6,-3.30535537
18198,GdCdPd,-0.679232445
18199,K2Cd2(SO4)3,-2.127814609
18200,K6Cd4Sn3Se13,-0.786892446
18201,CdInGaS4,-0.941359124
18202,CdRuIr,0.647424618
18203,CdPOs2,0.866116265
18204,CdNiP,0.558412321
18205,Cd2H2SO6,-1.737285876
18206,Zr3Cd2,1.176056232
18207,CeCd11,-0.111517156
18208,KLi3Ca7Ti2Si12(O18F)2,-3.374102035
18209,CdHClO,-1.45982809
18210,CdSi(CuS2)2,-0.846122748
18211,PrCd,-0.323147335
18212,CaCo2Te3(ClO4)2,-1.769066177
18213,Cd85Pd27,-0.241280239
18214,NaCa2TiSi2O8F,-3.222249439
18215,Tl8(CdN14)3,0.072903172
18216,Cs2K2Cd3O5,-1.420978648
18217,Ca5MnSi9(Pb3O11)3,-2.788008307
18218,Rb2Cd2(SO4)3,-2.128908031
18219,CsCd(NO2)3,-1.156905048
18220,NaCdPO4,-2.415600847
18221,Cs3CdI5,-1.272142231
18222,Cd6Sb5,0.470958337
18223,La2CdTe4,-1.165178364
18224,Na2CdO2,-1.487314178
18225,Ti2CdO6,-2.126819135
18226,Zr4CdO9,-3.432802063
18227,Ca2La2MgTi3O12,-3.614513958
18228,Yb2Ca3Zr3Ti8O28,-3.216767624
18229,SrCd2,-0.34952175
18230,Eu2Ca18P12(SO16)3,-3.276405227
18231,NaCa9TaTi9O30,-3.521776188
18232,Gd2CdS4,-1.948865059
18233,Gd2CdSe4,-1.423690106
18234,Cd13(In13Se27)2,-0.524458379
18235,Na26Cd141,-0.083204323
18236,K6CdPb8,-0.218306221
18237,YbCd6,-0.216325973
18238,KCaNb2O6F,-3.207056913
18239,CaLaMgTaO6,-3.557247933
18240,NaCa2SiO4F,-3.051357955
18241,NaCaScZn(SiO3)4,-3.190206349
18242,CdPbO3,-1.402709833
18243,Cd18Sn19O56,-1.746851575
18244,U7Cd3O20,-3.261682695
18245,LiCa9Mg(PO4)7,-3.290799921
18246,Ca10P6ClO24F,-3.377982142
18247,Ca8MgSi4(ClO8)2,-3.100460209
18248,Na2Ca4ZrNbSi4O17F,-3.381084887
18249,CaLaMnRuO6,-2.644133244
18250,Na9CaTa9TiO30,-3.040442677
18251,Na13Ca7S12Cl2O48F,-2.547542311
18252,NaCa3ScZn3(SiO3)8,-3.119461934
18253,NaCa3SmP3O12F,-3.366432031
18254,NaCa4TaTi4(SiO5)5,-3.42528709
18255,CaLaMnNbO6,-3.180999905
18256,CaTa2Ga2(CuO4)3,-2.337858873
18257,Ca9LaTi8Mn2O30,-3.407770815
18258,Na4CaFe4(PO4)6,-2.108472108
18259,Na6CaZr(SiO3)6,-3.042684224
18260,RbCdF3,-2.727444568
18261,Li25Ca5La7Nb8O48,-2.887981173
18262,Ca2Si3Cu2(HO3)4,-2.282466526
18263,Ca4La4Mn7NiO24,-2.716277931
18264,Na3CaFe4(SiO3)8,-2.651130696
18265,CaSmMnSnO6,-2.810403675
18266,Ca5Nd5Mn9CrO30,-2.775489786
18267,KCa9Co(PO4)7,-3.195295486
18268,LiCa9Co(PO4)7,-3.185949227
18269,Cd9(InSe2)20,-0.379763512
18270,CdH8(NO5)2,-1.254116177
18271,Cd13I28,-0.530121227
18272,NaCa3Fe4(SiO3)8,-2.808418051
18273,NaCa5ScZn5(SiO3)12,-3.090091153
18274,NaCa9TaTi9(SiO5)10,-3.458713294
18275,Na3Ca3Zr2Si4(O5F)3,-2.955625417
18276,NaCa8SmTi10(SiO5)10,-3.473525065
18277,CaP3H10NO12,-1.960912431
18278,Na2Ca17V2(PO4)14,-3.233211015
18279,CdP2(HO2)4,-1.133241571
18280,CaScSi3HO9,-3.281972122
18281,CdH6(SO4)4,-1.334179711
18282,CdRe2(H2O5)2,-1.631245966
18283,KCa4Si8H16O29,-2.48537387
18284,NaCa4Ti4Nb(SiO5)5,-3.393289131
18285,K3Ca2Mg10Si16(HO12)4,-2.585373402
18286,Na13Ca7S12Cl(O24F)2,-2.58813043
18287,K2NaCa2TiSi7HO20,-3.159016287
18288,Na2Ca9NdY5HoF41,-4.225248924
18289,NaCa9ScZn9(SiO3)20,-3.071687167
18290,NaCa2LuSi2O7F2,-2.919185262
18291,CaEr15Si8Se11ClO28,-3.127854505
18292,Na3CaSc3Zn(SiO3)8,-3.037522762
18293,TbCd,-0.318740033
18294,LiCaP3H8O13,-2.187444892
18295,Na5Ca2Ce3Ti8Nb2O30,-3.299837243
18296,NaCa4Si8H16O28F,-2.53727552
18297,CdH4S2O5,-1.473328832
18298,CdH3NO5,-1.275531697
18299,ErCd3,-0.266707861
18300,KCaP3(HO2)6,-2.286475628
18301,Ca2MnFeSi4(HO3)5,-2.176833849
18302,Na2Ca29ZrSi16(O7F2)8,-3.177877924
18303,Na3Ca2Fe5(SiO3)10,-2.87548679
18304,TlCdSb,-0.080642828
18305,Ca6La4Ti5Cr5O30,-3.325130473
18306,Sr(CdSb)2,-0.51568496
18307,CaFeSn(PO4)3,-2.69710738
18308,Ca5DyTi5Fe(SiO5)6,-3.427160274
18309,Ca2Fe2Si5HO15,-2.980739034
18310,Ca5Ho3Ti5Mn3O24,-3.368303534
18311,Ca10Ti8NbFeO30,-3.45600317
18312,Ca2Mn7Si10H12O35,-2.532294004
18313,Ca2La8Ti5Cr5O30,-3.409494196
18314,Ca7La3Ti5Cr5O30,-3.268996109
18315,Ca8La2Ti5Cr5O30,-3.209903438
18316,Ca3La7Ti5Cr5O30,-3.401255331
18317,NaCa3MgFe(Si2O7)2,-2.745600096
18318,Ca9LaTi4Mn6O30,-2.994647817
18319,Ca5Gd3Ti5Mn3O24,-3.341846099
18320,Na2Ca6Mg7Fe(SiO3)16,-3.217473529
18321,K2Cd2O3,-1.439087393
18322,Gd2CdO4,-3.102605794
18323,NaCdO2,-1.326650754
18324,UCd3O6,-2.299741256
18325,Na2CdO3,-1.279776699
18326,CdCu2O3,-1.052416987
18327,CdSeO4,-1.271336548
18328,CdH2(SO4)2,-1.810426923
18329,Cd3(Pt3O4)10,-0.874589095
18330,Na2Cd2O3,-1.451051301
18331,MnCd6O8,-1.483404648
18332,CdCoO3,-1.147752878
18333,MnCd9O10,-1.436650712
18334,MnCdO2,-1.638766411
18335,Na2LiCaVP2O9,-2.74611915
18336,Mn2Cd3O5,-1.603215602
18337,MnCd4O5,-1.493829631
18338,Mn9CdO10,-1.904853167
18339,Li2CdGeO4,-2.132354388
18340,Cd(CoO2)2,-1.244660429
18341,Cd6(CoO3)5,-1.209953586
18342,DyCd,-0.318047995
18343,Cd(NiO2)2,-0.944446335
18344,TlCdS2,-0.612177482
18345,La2Cd2O5,-2.698670778
18346,Cd(CuO2)2,-1.095364542
18347,CdP4O11,-2.477881162
18348,Nb6CdO16,-2.876470071
18349,LaCd,-0.338933829
18350,CdGe2O5,-1.952106721
18351,CdFeO3,-1.432662538
18352,Nb2CdO6,-2.732731323
18353,Sr(CdGe)2,-0.308520336
18354,CdP4,-0.068661413
18355,Cd(PtO2)3,-1.094481811
18356,Yb2CdSe4,-1.029052627
18357,Lu2CdS4,-2.05621882
18358,Sr(CdP)2,-0.597611603
18359,CsCdF3,-2.735625016
18360,Ti2CdO5,-2.963861731
18361,NaCaFe3(PO4)4,-2.626672004
18362,Pr2TlCd,-0.353625345
18363,Pr2CdCu2,-0.247591924
18364,Er2TlCd,-0.320202788
18365,ThCdPt2,-0.857194402
18366,ThCdRh2,-0.62448519
18367,CdSnRh2,-0.348606007
18368,EuTl2Cd,-0.247564381
18369,CdGaRh2,-0.376610199
18370,Sc2TlCd,-0.293258702
18371,PaCdPt2,-0.746749005
18372,Ho2TlCd,-0.333239745
18373,LaCdHg2,-0.456600679
18374,CdInPd2,-0.485353665
18375,LaCd3,-0.323829409
18376,Sc2CdTc,-0.211740666
18377,Sc2CdIn,-0.384532505
18378,Sr2CdIn,-0.390114903
18379,Sr2CdPb,-0.505890407
18380,PuCdRh2,0.070963951
18381,Sr2TlCd,-0.38840503
18382,PrCd3,-0.311529428
18383,TbMgCd2,-0.31880609
18384,PmCdHg2,-0.408387862
18385,PmCdRh2,-0.477104919
18386,PmCdPt2,-0.751573872
18387,PmCdPd2,-0.670185727
18388,PmCd3,-0.307214692
18389,PmMgCd2,-0.336159821
18390,PmZn2Cd,-0.326201584
18391,Er2CdIn,-0.397468492
18392,Pm2CdGe,-0.48792534
18393,Pm2CdIn,-0.420035136
18394,Ho2CdIn,-0.40839396
18395,Ho2CdOs,-0.231690184
18396,Pm2CdSi,-0.390241121
18397,Pm2CdSn,-0.536376071
18398,ErMgCd2,-0.293169884
18399,ErCdPd2,-0.754024085
18400,ErCdRh2,-0.604593347
18401,ZrCdPd2,-0.59169859
18402,TbCdRh2,-0.558926754
18403,Pm2TlCd,-0.366948364
18404,EuCd3,-0.267455221
18405,HoCdPt2,-0.846105512
18406,Yb2CdGe,-0.572265594
18407,Yb2TlCd,-0.453664632
18408,HoCdPd2,-0.7492258
18409,NpCdPt2,-0.242335091
18410,EuCdHg2,-0.388265786
18411,DyCdHg2,-0.370735668
18412,Dy2CdIn,-0.41885573
18413,NaCd2Pt,-0.260943841
18414,NaCd3,-0.079582586
18415,NaTl2Cd,-0.073329189
18416,HfCdCu2,-0.103145621
18417,HfCdRh2,-0.677864386
18418,TmCdPt2,-0.864846171
18419,TmCdRh2,-0.619691989
18420,LuMgCd2,-0.264311871
18421,TmMgCd2,-0.282606875
18422,Tm2CdOs,-0.267725759
18423,Tm2CdIn,-0.383963238
18424,YbCd3,-0.30361985
18425,YMgCd2,-0.321458204
18426,YCdPd2,-0.73186586
18427,YCdPt2,-0.82006116
18428,YCdHg2,-0.37660995
18429,Li2CdPd,-0.380807448
18430,GdMgCd2,-0.303857397
18431,LiCd3,-0.184493124
18432,Yb2CdPb,-0.553228582
18433,Y2TlCd,-0.379076842
18434,YbMgCd2,-0.301531729
18435,YbCdHg2,-0.435607602
18436,YbCdPd2,-0.69875193
18437,GdCdHg2,-0.379121601
18438,LuCdRh2,-0.638867678
18439,YbLaCd2,-0.384879009
18440,Yb2CdSn,-0.612181115
18441,Cd2PdRh,-0.266523237
18442,Cd2RhPt,-0.203801145
18443,TmCdPd2,-0.762356646
18444,TmCdHg2,-0.333017884
18445,CdPd3,-0.25997919
18446,LuCdHg2,-0.308534095
18447,YbTl2Cd,-0.27713547
18448,Dy2TlCd,-0.345448965
18449,CdPt3,-0.177889577
18450,GdCdPd2,-0.692717376
18451,NdMgCd2,-0.335408475
18452,Nd2CdIn,-0.424231267
18453,MgSc2Cd,-0.163231104
18454,Lu2TlCd,-0.279350647
18455,Yb2CdIn,-0.469195175
18456,TlCdRh2,-0.04926974
18457,Li2MgCd,-0.180187694
18458,LuCdPd2,-0.775723
18459,Lu2CdIn,-0.35401112
18460,CeCdHg2,-0.322695628
18461,Gd2TlCd,-0.169675995
18462,ErCd,-0.312628445
18463,LiCd2Rh,-0.27580555
18464,SmMgCd2,-0.333065269
18465,Sr2CdSn,-0.550503737
18466,Sr5Cd2Sb5F,-1.232107625
18467,SmCdHg2,-0.400141188
18468,SmCd3,-0.2990938
18469,PrCdHg2,-0.413470415
18470,PrMgCd2,-0.335491946
18471,SrCdHg2,-0.376041315
18472,Sm2TlCd,-0.361375468
18473,LiCd2Pd,-0.40976496
18474,LiCd2Pt,-0.435198082
18475,ScCdHg2,-0.262298737
18476,DyCdPd2,-0.741514215
18477,K2SrCdSb2,-0.62818362
18478,Li3Cd,-0.176163888
18479,ThCdHg2,-0.242395485
18480,Cd2PbO4,-1.401081839
18481,DyMgCd2,-0.311526699
18482,LaMgCd2,-0.338031226
18483,La2TlCd,-0.388269561
18484,DyCdRh2,-0.574226295
18485,ScCdRh2,-0.617341867
18486,ScCdPd2,-0.724850417
18487,LiCdPd2,-0.451215597
18488,Na4CdP2,-0.346539137
18489,Cd4P6SN12,-0.62984738
18490,Cd(SbO3)2,-1.865598213
18491,CdCuF4,-2.164770694
18492,CdHgO2,-1.047420988
18493,YCd,-0.3511429
18494,CdSe2O5,-1.345217904
18495,Yb(CdSb)2,-0.472171838
18496,Cd,0
18497,YCdGa,0.041009465
18498,YTlCd,0.06555911
18499,SrCdSi,0.384528963
18500,Cs5Tl11Cd2,-0.129586566
18501,YbNdCd2,-0.379791976
18502,ZnCdS2,-1.038988317
18503,ZnCdTe2,-0.460879329
18504,UCd(PbO3)2,-2.365221763
18505,Sc3Cd,-0.135650848
18506,MgCd2,-0.05268759
18507,HoErCd2,-0.315211435
18508,Na2CdHg,-0.15498118
18509,ScCdCu2,-0.200914267
18510,HoLuCd2,-0.3098956
18511,Lu2MgCd,-0.170529826
18512,Nd2Cd2O5,-2.167443732
18513,Nd2CdHg,-0.390292367
18514,LaCdO3,-2.088218556
18515,NdZn2Cd,-0.321908119
18516,Rb5Tl11Cd2,-0.114498117
18517,Rb3Cd,0.04669926
18518,RbCdO3,-0.746245695
18519,Pr3Cd,-0.108319658
18520,Li2CdHg,-0.316068117
18521,NaCdHg2,-0.171670784
18522,NaCdO3,-0.63865446
18523,CdInRh2,-0.314685945
18524,TbCdPd2,-0.731454989
18525,HoCdHg2,-0.358754365
18526,ZrCdRh2,-0.62283863
18527,MgScCd2,-0.259181796
18528,NdCdPd2,-0.648436214
18529,Tm2TlCd,-0.305876355
18530,Pr2CdPb,-0.448743685
18531,SmCdPd2,-0.682762392
18532,SmZn2Cd,-0.322008958
18533,Sm2CdIr,-0.458050958
18534,Tm2CdHg,-0.386157097
18535,Tl3Cd,0.04412691
18536,Sm3Cd,-0.097162284
18537,YDyCd2,-0.337686737
18538,YHoCd2,-0.334368168
18539,YLuCd2,-0.32553676
18540,Yb2CdHg,-0.521691067
18541,YbPrCd2,-0.381251385
18542,Sr3CdO4,-2.647217287
18543,Zn3Cd,0.076390675
18544,Zn3CdS4,-1.082673568
18545,Pr2CdSn,-0.538156202
18546,K3Cd,0.024238838
18547,Na3Cd,-0.047190355
18548,Cr3CdTe4,-0.007863846
18549,Ce2CdHg,-0.198814445
18550,KCaSiHO4,-2.79077178
18551,TlCdF3,-2.308292132
18552,TlCdTe2,-0.227810585
18553,TlCdSe2,-0.339181862
18554,Sr4CaCo2(SO3)2,-2.341062776
18555,Sr4CaCr2(SO3)2,-2.671240554
18556,Sr3CaMn2S2O5,-2.491321724
18557,Sr3CaCo2S2O5,-2.178409085
18558,Sr3CaCr2S2O5,-2.560483562
18559,Sr4CaMn2(SO3)2,-2.582083831
18560,Sr4CaFe2(SO3)2,-2.551678146
18561,CaNiSnP2O9,-2.551456543
18562,CaTiSn(PO4)3,-2.880615519
18563,CaLaVCrO6,-3.066676731
18564,Ce,0.22588013
18565,CeSm3,0.084847875
18566,CeYTl2,-0.297408557
18567,CeGa4Co9,-0.225117995
18568,Ce(CuSb)2,-0.390766393
18569,CeLu3,0.064140007
18570,Ce(YS2)3,-2.466101638
18571,LiCeSn,-0.519677798
18572,Ce3Cu,0.157552663
18573,CeY3,0.084843365
18574,Ce2HfSe5,-1.639930642
18575,Ce2SnSe4,-1.347027758
18576,CePS,-1.768437024
18577,Ce4Si3Rh4,-0.933347305
18578,CeZnIn,-0.340207968
18579,Ce2MnN3,-1.438826736
18580,CeS,-1.998574962
18581,Ce(P3Ru)4,-0.689402779
18582,CeH3,-0.577000909
18583,Cl2,0
18584,CeSe,-1.551114739
18585,CeScSi,-0.53781948
18586,CeTe,-1.233030555
18587,CeSe2,-1.341752656
18588,CePd,-0.676668732
18589,CeRh,-0.77404092
18590,CeGa,-0.463480355
18591,CeO2,-3.502344579
18592,CeCoSi,-0.660307407
18593,CeSbPd,-0.979407043
18594,CeS2,-2.151953006
18595,CeTeCl,-1.934768788
18596,CeTlZn,-0.22178029
18597,CeZnGa,-0.44785409
18598,Li3CeSb2,-0.793339483
18599,LiCe(CuP)2,-0.778631718
18600,PdCl2,-0.844589432
18601,Ce3Zr5O16,-3.827736227
18602,Ce3ZrO8,-3.882347005
18603,Ce(PO3)4,-2.899104168
18604,Ce5Zr3O16,-3.862016036
18605,CeZrO4,-3.844447893
18606,CeGaO3,-2.994253249
18607,CePO4,-3.391403557
18608,CeZr3O8,-3.815073559
18609,CeZr7O16,-3.800551072
18610,Ce(P3Os)4,-0.633105584
18611,NiCl,-0.195003947
18612,Ni6Cl7,-0.429124093
18613,Ce2Cu(NO)2,-1.941511318
18614,CeGaGe,-0.613766477
18615,YbCl3,-2.090269032
18616,Ce3Pd5,-0.765149744
18617,CeSi2Rh,-0.926050277
18618,CePd7,-0.488348346
18619,CeI3,-1.374562397
18620,CeGa2Ni,-0.582181459
18621,CeFeSi2,-0.685698016
18622,CeSi2Ru,-0.821917699
18623,CeNiSn2,-0.526538231
18624,Ce2(CuGe)3,-0.426690908
18625,CeSiO4,-3.580728689
18626,CeMg,0.093978368
18627,CeO,-3.240023281
18628,RbCeSe2,-1.669941709
18629,CdCu2GeSe4,-0.342880215
18630,CeCo2,-0.247282392
18631,TbCsCdSe3,-1.372016521
18632,CsDyCdSe3,-1.368725372
18633,KCeSiS4,-1.768979067
18634,SrCeN2,-1.381804196
18635,CeFe5,-0.01477338
18636,CePt3,-0.983711025
18637,Ce2(Zn2Ge)3,-0.37751845
18638,CeCuSe2,-1.195224961
18639,CeSnRh,-0.894182051
18640,CsDyCdTe3,-1.093079735
18641,CsHoCdTe3,-1.086057497
18642,CsLaCdTe3,-1.173646729
18643,CsLuCdTe3,-1.054922453
18644,CsPrCdTe3,-1.114786339
18645,CsTmCdTe3,-1.070298218
18646,CsSmCdTe3,-1.107868311
18647,CeZnPt,-0.870284014
18648,Ce2Ga10Pd,-0.459968458
18649,CePIr,-1.203838008
18650,CeZn3Pd2,-0.56875882
18651,CeSi3Ru,-0.722937257
18652,CeGe3Rh,-0.688341485
18653,CeGe3Ir,-0.646310459
18654,CeZnPO,-1.993660071
18655,CeMgZn2,-0.279680761
18656,CeZnPd,-0.63567888
18657,CeMgNi4,-0.398996932
18658,Ce(GePd)2,-0.784057362
18659,CeSi2Ir3,-0.920432145
18660,CeMg2Ni9,-0.285822664
18661,Ce3S4,-2.402076324
18662,CeZn2,-0.287591412
18663,CdCu2GeS4,-0.740586767
18664,Rb2CdSi5O12,-2.967577087
18665,CeRh3,-0.650702418
18666,CeSi2Ni,-0.827033586
18667,Sr2CeO4,-3.509029649
18668,Ce(FeP3)4,-0.65232479
18669,CeScGe,-0.623334795
18670,KCd6P7O24,-2.416314258
18671,CeNi2,-0.379469993
18672,K3Ce(PO4)2,-2.967389287
18673,Ce2(ZnGe2)3,-0.386324431
18674,Ce2Zn2Ni5,-0.362112669
18675,CeMg3,-0.029605444
18676,Ce2(SbPd3)3,-0.693672529
18677,CeVO3,-3.234514265
18678,CeSi2,-0.653576995
18679,CeNi5,-0.34174988
18680,CeSn3,-0.532639265
18681,CeVO4,-3.167965291
18682,CeCrSe2O,-1.894487196
18683,V2Cd(P2O7)2,-2.617851382
18684,CeMgPd,-0.567109333
18685,Ce2In,-0.231216712
18686,CeSnPd,-0.825007817
18687,CeInCu2,-0.257343557
18688,CeTiGe,-0.578535354
18689,Ce(MgSi)2,-0.428864106
18690,Ce2MgNi2,-0.314112633
18691,Ce3Ga,-0.241085774
18692,CeZnGe,-0.581053837
18693,CeMgPt,-0.847768911
18694,CeIn5Co,-0.268495554
18695,Ce4S3O4,-3.32460075
18696,Ce2In8Co,-0.322294888
18697,CeGeIr,-0.873528144
18698,Li3Ce5Ge4,-0.317167366
18699,Ce(GePt)2,-0.805603046
18700,Ce2InPd2,-0.775095181
18701,Ce2O3,-2.962970803
18702,CeCrSe3,-1.177310528
18703,Ce(CuGe)2,-0.498360442
18704,CePb3,-0.357078247
18705,CeInPd2,-0.734190062