id,Composition,FormationEnergy
14623,CdH2(CO2)2,-1.308313632
14624,C68OF20,-0.339475864
14625,CaMg(CO3)2,-2.588105013
14626,Co3Ge(CO)10,-0.788773684
14627,CSe(ClF)3,-1.297792469
14628,Fe2C8SO10,-0.829798177
14629,ReC5ClO5,-1.092857273
14630,Mn2Hg(CO)10,-0.773716322
14631,Os4C13S2O13,-0.992271984
14632,Os6C17S2O17,-0.949190546
14633,Os3C8SO8,-0.940879021
14634,CoSb(CO)3,-0.727547464
14635,Fe3C10SO10,-0.638787038
14636,Os7C19SO19,-0.918987712
14637,Os5C15SO15,-0.945851237
14638,Os10C23S2O23,-0.72910724
14639,CrC5SO7,-1.02603595
14640,K2Ca(CO3)2,-2.409709509
14641,KCo(CO)4,-1.004965662
14642,Os3C9Se2O9,-0.942540589
14643,Fe4Ge(CO)16,-0.652127063
14644,Os4C13SO13,-0.965363252
14645,SbC(N3Cl2)3,-0.29294809
14646,InCo3(CO)12,-0.846578237
14647,PCN2Cl3,-0.627012764
14648,Os2Pt(CO)9,-0.93204745
14649,GaRe2(CO)9,-0.990476483
14650,Co6Ge2(CO)19,-0.779730694
14651,Ru5C14(SO7)2,-0.969776694
14652,Ru6C17S2O17,-0.739154184
14653,Ru7C20(SO10)2,-0.956151453
14654,Os2C6SeO6,-0.929928451
14655,Te2W3(CO)15,-0.709439168
14656,Te2Ru4(CO)11,-0.929728274
14657,Co4Si(CO)14,-0.808389323
14658,Co8C24(SO7)3,-0.672596708
14659,OsC4ClO4,-1.042976656
14660,Fe4Pb(CO)16,-0.634489689
14661,Co4Ge(CO)13,-0.784282485
14662,Fe3C9S2O9,-0.649773846
14663,Fe3Te2(CO)9,-0.556561732
14664,PC2S2N3,-0.208334549
14665,CaMg3(CO3)4,-2.522561889
14666,Mn2Pt(CO)12,-0.798275807
14667,Tl2Zn(CN)4,0.112718658
14668,Fe6Sn2(CO)23,-0.638443992
14669,Co4Sn(CO)16,-0.844735199
14670,Fe4Si(CO)16,-0.655971101
14671,MnC4IO4,-0.728630621
14672,Fe6Ge2(CO)23,-0.63151737
14673,Co4Pb(CO)16,-0.831449658
14674,Tl4Mo(CN)8,0.140663773
14675,Tl4Fe(CN)6,0.04899006
14676,Fe3C9(SO5)2,-0.699935871
14677,Er2C(NO)2,-2.525415435
14678,K3Cu(CN)4,-0.367970471
14679,C2Se(SN)2,0.122257058
14680,Tb2Fe2Si2C,-0.687778973
14681,P2CN3Cl5,-0.73880858
14682,TcC4IO4,-1.003544626
14683,Os2C6SO6,-0.982347669
14684,Os4C13(SO6)2,-0.899336717
14685,Os6C19SO19,-0.943064187
14686,Nd2Fe2Si2C,-0.603669366
14687,Os6C17SO17,-0.928420728
14688,Os4C12SO12,-0.957616003
14689,CsY10(C2I9)2,-1.254655106
14690,Fe2Mo4C,0.006948802
14691,Cs2NaCo(CN)6,-0.306530014
14692,KLaCO4,-1.922496747
14693,Pb(C2N3)2,0.097627421
14694,RuC4(IO2)2,-0.861795173
14695,Ce(C2N3)3,0.965926104
14696,Sr4GaCN5,-0.88181479
14697,Gd(C2N3)3,-0.198345901
14698,U(WC)4,-0.117890631
14699,Rb4CO6,-1.581389412
14700,Na2CO5,-1.222588614
14701,Ca5Si2C2O13,-3.123212636
14702,K4CO6,-1.333820051
14703,Rb8C4O7,-0.749327934
14704,Ca5Si2CO11,-3.275661701
14705,Er7C2I12N,-1.328632322
14706,Os3C8(SO4)2,-0.978117549
14707,KCu(CN)2,-0.201180007
14708,Re2C9S3O8,-0.94012497
14709,Ru3C10(NO6)2,-0.902004489
14710,SiC4(SN)4,-0.311020346
14711,U5Re3C8,-0.165810209
14712,ZnC2(SN)2,-0.264223159
14713,Ho2Si4CN6,-1.391334151
14714,Fe2Os(CO)12,-0.763564954
14715,C7SeNF5,-0.629603048
14716,Re3C14NO16,-0.989427868
14717,Eu8C4I9N7,-1.247383071
14718,Ce12C6I17,-1.081389706
14719,SrH6C4O7,-1.433114275
14720,MgH10CO8,-1.647004183
14721,Na4P2H4CO9,-1.990994781
14722,NaH3C2O5,-1.592444078
14723,H4CN5Cl,-0.373372803
14724,NaHCO3,-1.892470499
14725,KH(CN2)3,0.388050155
14726,CsH2CO3,-1.679207079
14727,CsH(CO2)2,-1.671024679
14728,H5C2NO,-0.649780571
14729,Ho2H4CO7,-2.493958589
14730,H10C2N2O5,-1.127964005
14731,SnHC2O3,-1.169846097
14732,YbNa5H4(C2O7)2,-2.029345325
14733,ZnH8(CO2)4,-1.218641789
14734,YH2C4O9,-1.849492933
14735,SnH2C4O3,1.004334488
14736,NdH4C3O8,-1.889099644
14737,SnH8(CI)4,0.010440364
14738,ZnH10C4(N2O3)2,-0.996499487
14739,H2C3(N2Cl)2,-0.355094497
14740,SiHC3O,1.076957534
14741,Na2H6C4O7,-1.328150189
14742,Na2H20CO13,-1.492931938
14743,K5NaFe2(CO2)12,-1.823633819
14744,Mn4C15S4O15,-0.752212915
14745,Co3C9SO9,-0.8017164
14746,Fe3C10SeO10,-0.603523923
14747,Fe2C9(O4F)2,-0.773554667
14748,SbHC3(NCl3)3,-0.699865934
14749,ReH(CO)4,-0.929156663
14750,Fe4Sn(CO)16,-0.66093754
14751,CsTiH10C4O13,-1.570161454
14752,Fe4C14O13,-0.147807372
14753,H3CSN2,-0.205792516
14754,Co6C13(SeO6)2,-0.614712298
14755,H6CN3Cl,-0.649891603
14756,H5C8NO2,-0.405141067
14757,H22C10O3,-0.232884218
14758,H4C(N2O)2,-0.542375485
14759,H6C(N3O2)2,-0.597393877
14760,H2C2N2O,-0.476174779
14761,Ru3C10I2O9,-0.682842935
14762,H2Os5(CO)16,-0.914376405
14763,H9C2N11O8,-0.570111246
14764,H3Os4C12ClO12,-0.914420189
14765,Ru4C12N2O13,-0.889950821
14766,H8C3(NO)4,-0.395777745
14767,NaH5CO4,-1.465990316
14768,H13C3NF4,-0.952099918
14769,SmRh3C,-0.441796324
14770,HOs7C20O19,-0.847537978
14771,Yb5Na7Li4C12O37,-2.222263893
14772,H2Ru6(CO)17,-0.885207574
14773,Mg5H10(C2O9)2,-2.059182076
14774,H12C4N2O9,-1.21386389
14775,Sr2C2N3,-0.401929411
14776,H2Ru4(CO)13,-0.910101531
14777,Sr6CoC2N7,-0.866851872
14778,Na2H2CO4,-1.855518631
14779,CaH16C4(NO)10,-0.983704783
14780,H6C3N4O3,-0.874007096
14781,CsH7(C2O5)2,-1.518765852
14782,H12C4IN,-0.30820286
14783,C6S3(N3Cl)2,0.254908582
14784,H4Os3C10O9,-0.790820454
14785,Re5H4(CO)20,-0.920128113
14786,Na5H3(CO3)4,-1.944715146
14787,Ca7Si6H4CO23,-3.052599444
14788,Sb3H36(C3I2)4,-0.200695191
14789,H7C3N3O5,-1.096054901
14790,H8C2(N2O)3,-0.632150748
14791,H9C2N7O6,-0.731612934
14792,Na3YH6(CO4)3,-2.035361262
14793,SrH3C3O7,-1.842691748
14794,K3GdH6(C2O5)3,-1.875028792
14795,NaH3(CO2)2,-1.42779353
14796,H5C2NO3,-0.997388215
14797,LiHCO2,-1.668937341
14798,VH7(CO2)4,-1.334234478
14799,FeH4(CO3)2,-1.540074267
14800,Mo2H3(CO2)4,-1.129610597
14801,Co3C7S2O7,-0.771282285
14802,K3Mn3H2C12O13,-0.886347111
14803,MnH(CO)4,-0.66383353
14804,Co3C9SeO9,-0.766085349
14805,MnHC3O4,-0.907689856
14806,LiCuCO3,-1.69532099
14807,LiCu2C2O7,-1.501582298
14808,Dy2CO5,-3.280116391
14809,LiCu2(CO3)2,-1.587918559
14810,Mg(CO2)2,-2.057929021
14811,KGePCO7,-2.27106393
14812,YbCO3,-2.831252456
14813,TbCO3,-2.778979677
14814,K2SbPCO7,-2.287144908
14815,Li2CuCO4,-1.827618399
14816,LiCuC2O5,-1.63173353
14817,K2MgH8(CO5)2,-1.832806152
14818,LiCu3(CO3)3,-1.447576616
14819,H6C2N4O,-0.586158874
14820,YH2(CO3)2,-2.224243676
14821,Li2Cu3(CO3)3,-1.556343796
14822,LiCu2(CO3)3,-1.513577921
14823,TeH14C2(NO2)4,-1.061392544
14824,Cs2H6CO6,-1.681559031
14825,H21C6N2Cl3,-0.468890004
14826,H9CN5Cl2,-0.539693522
14827,TeH3CCl3,-0.66025727
14828,H9PbC3I,-0.168924113
14829,H7C3N6Cl,-0.516421613
14830,Sb3H18C6N,-0.155648783
14831,Li2FeCO4,-2.03458851
14832,Li2Fe2(CO3)3,-1.901358389
14833,LiFeCO4,-1.991464488
14834,Li2Fe2C2O7,-1.926850775
14835,Li2Fe(CO3)2,-1.992033595
14836,LiV(CO3)2,-2.15080116
14837,Li2FeCO5,-1.961313841
14838,Li3V(CO3)3,-2.144157142
14839,Li3Mn(CO3)3,-2.037874647
14840,Li2MnCO4,-2.095533379
14841,Li3Fe2(CO3)4,-1.951264298
14842,LiMn2(CO4)2,-1.882595705
14843,LiMnCO4,-1.993450117
14844,Li3Mn2(CO5)2,-1.906690275
14845,V(CO3)2,-1.933435098
14846,LiFe(CO3)2,-1.898738291
14847,Mn(CO3)2,-1.698387491
14848,LiCo(CO3)2,-1.76564706
14849,LiCo2C2O7,-1.717149786
14850,LiCoCO4,-1.73530934
14851,Li3Co2(CO3)4,-1.855846962
14852,LiNi(CO3)2,-1.589226726
14853,Li3Ni2(CO3)4,-1.701519664
14854,LiNi2(CO4)2,-1.43893629
14855,LiV2(CO3)4,-1.989397442
14856,LiFe2C2O7,-1.871024681
14857,Fe2C2O7,-1.740715781
14858,VH10(CO5)2,-1.542084814
14859,Co2C2O7,-1.484189076
14860,Co(CO3)2,-1.449819892
14861,LiCo2(CO3)4,-1.61132109
14862,Li4V(CO3)4,-2.093595699
14863,Li2Co2(CO3)3,-1.820154931
14864,Li2CoCO4,-1.941930755
14865,Li2Co2C2O7,-1.812298219
14866,LiNiCO4,-1.596924681
14867,LiFe2(CO3)4,-1.753829265
14868,Li2Ni(CO3)2,-1.847468941
14869,Li2Cr3(CO3)6,-1.979269922
14870,Li2V(CO3)3,-2.052395368
14871,LiFe2(CO3)3,-1.80450425
14872,LiCo2(CO3)3,-1.687451753
14873,LiMn(CO3)2,-1.940971503
14874,LiV2(CO4)2,-2.129853351
14875,LiMn2(CO3)4,-1.809733184
14876,Li3V2(CO5)2,-2.201556231
14877,Li2V3(CO3)6,-2.058123776
14878,Fe2(CO3)3,-1.772137595
14879,Li3Mn(CO3)4,-1.871479092
14880,Li3Mn2(CO3)4,-1.995339416
14881,Li2Mn2(CO3)3,-2.028318822
14882,NiCO4,-1.254790793
14883,Li2Co(CO3)2,-1.967753494
14884,Li2Mn2C2O7,-2.034972041
14885,Li2MnCO5,-2.067972115
14886,LiCr(CO3)2,-2.025623807
14887,LiCr2(CO3)4,-1.893602416
14888,Li3Fe2(CO4)2,-1.992615089
14889,Li5Mn(CO3)4,-2.0906616
14890,Li2V(CO3)2,-2.116507255
14891,Li3Cr(CO3)3,-2.101517808
14892,H20C3(N2O5)2,-1.181277593
14893,Li3Fe(CO3)3,-2.025236355
14894,Li5Fe(CO3)4,-2.078490122
14895,LiCrCO4,-2.175809171
14896,Li5V(CO3)4,-2.158210039
14897,Li2Mn(CO3)2,-2.117029755
14898,Li2Cr(CO3)2,-2.066223938
14899,Li3V2(CO3)4,-2.091175798
14900,Sr2VCO3F5,-3.293910672
14901,Na3SrPCO7,-2.599708488
14902,Na3ZnPCO7,-2.314348684
14903,Na3CaPCO7,-2.622778076
14904,LiVCO4,-2.232417961
14905,LiMnCO3F2,-2.322178075
14906,Na2GaPCO7,-2.370000518
14907,Na2GePCO7,-2.189052407
14908,Na2DyPCO7,-2.783501872
14909,NaGePCO7,-2.228191379
14910,LiCuCSO7,-1.739116232
14911,NaSbCSO7,-1.967918473
14912,Na2CrPCO7,-2.405892036
14913,Fe(CO3)2,-1.648352344
14914,CuHCO4,-1.329356384
14915,MnCSO7,-1.771882777
14916,K3VPCO7,-2.397739324
14917,Na6Mn2C4SO16,-2.142206493
14918,Li4Co2C4SO16,-1.88062434
14919,Na3SnPCO7,-2.24650775
14920,Na4Co2C4SO16,-1.871763367
14921,Na2VCSO7,-2.169279792
14922,CoH8(CO5)2,-1.423893951
14923,NiH8(CO5)2,-1.340474415
14924,Na3CuCSO7,-1.939183192
14925,K3ZnPCO7,-2.317665718
14926,K2NiPCO7,-2.05812352
14927,KCoPCO7,-1.996803585
14928,H5C3N5O,-0.500275938
14929,Na3PH12CO11,-1.644232207
14930,Li4Sb2C4SO16,-1.956362848
14931,Li4V2C4SO16,-2.15424515
14932,K5H(CN2)2,-0.574492275
14933,Na4Cu2C4SO16,-1.775990563
14934,K2Ni(CN)4,-0.272338673
14935,SiCN,1.421187533
14936,V2PC,-0.691970212
14937,K2Mg(CO3)2,-2.285986841
14938,NiC2(SN)2,-0.066662639
14939,Li2Cr(CO3)3,-1.962914146
14940,InH10C3O11,-1.475268339
14941,Rb4Zr6CCl18,-2.226416241
14942,Sr3Co(CN)3,-0.726083782
14943,Rb4H4C3O10,-1.900051613
14944,CsMn(CN)3,-0.291563353
14945,NbC2NCl8,-0.974665478
14946,InC6(NCl3)2,0.208789432
14947,U6Co12Ge4C,-0.339374622
14948,Fe2C4Cl2O9,1.68638751
14949,Cs2Sr2(CO3)3,-2.481294647
14950,RbSrCO3F,-2.801520654
14951,SiH9C3Cl,-0.471584426
14952,K3CO3F,-2.331708235
14953,Rb3CO3F,-2.291041049
14954,Tm2Fe2Si2C,-0.702737088
14955,LiC2NO6,-0.999405812
14956,Li4UC3O11,-2.437331459
14957,Pr2C(NO)2,-2.364209477
14958,Nd2C(NO)2,-2.389196062
14959,Sm2C(NO)2,-2.431759782
14960,Li2CN2,-0.833654291
14961,Rb2H2C2O5,-1.769258926
14962,H(C3N2)4,0.390781171
14963,H5PbCI3N2,-0.504475126
14964,KHo(CO3)2,-2.594623265
14965,YbK(CO3)2,-2.342210678
14966,KGd(CO3)2,-2.568967113
14967,KDy(CO3)2,-2.594569302
14968,RbSm(CO3)2,-2.572533539
14969,Rb2Sr2(CO3)3,-2.482532159
14970,H4C6O,-0.216796936
14971,H4C5O2,-0.522425466
14972,H4C2O,-0.542010176
14973,H2CSO4,-1.265620529
14974,HCO,-0.87556953
14975,Fe11MoC4,0.217741957
14976,H6CIN,-0.458020507
14977,H6C6NO,-0.263014527
14978,H9C8NO2,-0.428540622
14979,H6RuCI3N,-0.233445101
14980,Sn3H6CNO7,-1.097330552
14981,Sn3H8C2NO7,-0.932078905
14982,H6PbCNCl3,-0.866249629
14983,K2FeNi(CN)6,-0.161537444
14984,Rb2LiCo(CN)6,-0.293392655
14985,Cs2NaCr(CN)6,-0.280415575
14986,Rb2LiFe(CN)6,-0.252452526
14987,Rb2NaCr(CN)6,-0.263102575
14988,KCdC3(NO)3,-1.021981956
14989,KHgC3(NO)3,-0.869432755
14990,Na3MnPCO7,-2.383121336
14991,Rb2FeCu(CN)6,-0.114879249
14992,Cs2NaMn(CN)6,-0.261738733
14993,Cs2LiCr(CN)6,-0.283449149
14994,Na2FeCu(CN)6,0.037993615
14995,K2FeCo(CN)6,-0.158782046
14996,Na3MgC2ClO6,-2.258950768
14997,ReH12C4O5F,-0.874233497
14998,Zn2PH2CO7,-1.949355117
14999,NiH12C2(SN3)2,-0.43897227
15000,Na5ScH4(C2O7)2,-2.114103942
15001,Na2CuH6C2O9,-1.62667191
15002,Na2CaH10C2O11,-1.80319898
15003,CdH8C4(S2N3)2,-0.407965575
15004,H3CSO4F3,-1.708571465
15005,CuH6CN2O3,-0.956468115
15006,CrCoH18(CN2)6,-0.310605437
15007,CrH8C4(S2N3)2,-0.416269795
15008,Rb2MgH8(CO5)2,-1.830397579
15009,TlFeC3NO4,-0.5745375
15010,Na3FePCO7,-2.32829085
15011,Li2TiPCO7,-2.587057756
15012,LiTiPCO7,-2.689583945
15013,Li2CuPCO7,-2.08564483
15014,Li3CuPCO7,-2.217941095
15015,Li3TiPCO7,-2.440833147
15016,LiCuPCO7,-1.859780783
15017,LiCoPCO7,-1.982983671
15018,Li2CoPCO7,-2.194239665
15019,Li3CoPCO7,-2.318971102
15020,Li2CrPCO7,-2.434518979
15021,Li3CrPCO7,-2.401906484
15022,Li2FePCO7,-2.339194134
15023,LiFePCO7,-2.134415913
15024,Li3FePCO7,-2.387277652
15025,LiMnPCO7,-2.202368659
15026,Li2MnPCO7,-2.358040031
15027,LiNiPCO7,-1.851297722
15028,Li2NiPCO7,-2.089171402
15029,Li3NiPCO7,-2.261038296
15030,LiVPCO7,-2.38797818
15031,Li3VPCO7,-2.442516337
15032,Li2VPCO7,-2.468929864
15033,Li2PWCO7,-2.244792992
15034,Li3PWCO7,-2.103789126
15035,Li3MnPCO7,-2.432434081
15036,K2CoH8(CO5)2,-1.669385481
15037,Rb2CoH8(CO5)2,-1.665002395
15038,K2NiH8(CO5)2,-1.636869245
15039,Rb2NiH8(CO5)2,-1.632311491
15040,Co2PH2CO7,-1.827823033
15041,Na6Fe2C4SO16,-2.092652314
15042,K2Re3CS5N,-0.971019621
15043,ZnC2S2(OF)6,-1.919037817
15044,K4Gd2C3O9F4,-2.849293553
15045,Rb2NaFe(CN)6,-0.247586246
15046,Rb2NaMn(CN)6,-0.244979833
15047,Cs2KFe(CN)6,-0.275859544
15048,Cs2RbFe(CN)6,-0.270734197
15049,Cs2KCo(CN)6,-0.321145169
15050,FeCoH18(CN2)6,-0.306706958
15051,CsMnCr(CN)6,-0.059208325
15052,K2NaH5(CO4)2,-1.812089088
15053,Rb2NaH5(CO4)2,-1.8090222
15054,Na2Cu3H8(CO2)8,-1.274690881
15055,MnCoH18(CN2)6,-0.305371678
15056,LiPWCO7,-2.254043886
15057,RbCdC3(SN)3,-0.389287225
15058,Na6Mg2C4SO16,-2.270847204
15059,CoHgC4(SN)4,-0.07127252
15060,ZnHgC4(SN)4,-0.17791087
15061,ZnCdC4(SN)4,-0.24762673
15062,Cs2NaFe(CN)6,-0.263869262
15063,PH7CN2O5,-1.390673062
15064,FeH9C3N7O2,-0.43880598
15065,PH6CNO3,-1.19940595
15066,Fe2PH2CO7,-1.976080465
15067,ZnCdC4(SeN)4,0.043404794
15068,CdHgC4(SeN)4,0.159859478
15069,MnHgC4(SeN)4,0.111817885
15070,KGdCO3F2,-3.09856741
15071,KU2H5C4O15,-2.160685025
15072,K3NdH6(C2O5)3,-1.878268918
15073,NaSbCO2F3,-2.337173039
15074,CeH16C4Cl3O4,-0.98988789
15075,KScH4(C2O5)2,-1.90781338
15076,H12C4INO3,-0.435796156
15077,CsCS(OF)3,-2.106396209
15078,C3ICl(OF3)2,-1.552536595
15079,CS3NO2F3,-1.308969486
15080,PrPH5CO7,-2.057179491
15081,PH9C(NO)4,-1.079352449
15082,CS4N2(OF)3,-1.207313814
15083,Rb3NbH4(C2O5)3,-1.853128476
15084,YbNaCO3F2,-2.761846914
15085,C3S2ClO2F3,-1.268754201
15086,EuPH5CO7,-1.919170413
15087,Na4MgC6(SN)6,-0.607458298
15088,CuC2S2(OF)6,-1.777798829
15089,Cu2H10C6S3N4,-0.235513651
15090,H12RhC8NO6,-0.700251942
15091,KCuCO3F,-1.908352312
15092,KH3C2S2O,-0.707853666
15093,H24OsC8(NF3)2,-0.683254203
15094,Sb4RuC6(O3F11)2,-2.13552094
15095,CIN2(O2F)3,-1.103449332
15096,SnCSNF,-0.899379186
15097,Na3Ce2C4O12F,-2.541990554
15098,SiH12C2(NF3)2,-1.445515012
15099,NdPH5CO7,-2.0595756
15100,CdHgC4(SN)4,-0.117223211
15101,PH10C2NO4,-1.08093141
15102,GdPH5CO7,-2.057579003
15103,EuNa2C(OF)3,-2.850453387
15104,HgSb4C2(OF11)2,-2.343310736
15105,CuH3C2NO4,-1.106778979
15106,InH8C4NO10,-1.411320268
15107,NaCdH3(CO2)3,-1.426900573
15108,K3NaUC3O11,-2.473283192
15109,LaH4C4NO8,-1.738957032
15110,PH8C2NO4,-1.14523821
15111,SbC2N(OF3)2,-1.952252671
15112,Sb4PdC4(O2F11)2,-2.19603987
15113,SbIrC2(OF3)2,-1.943987216
15114,MnH21C7S3N,-0.320609532
15115,HoPH5CO7,-2.075947243
15116,C2SeS2O7F6,-1.719324836
15117,SbCSCl2F9,-2.051229926
15118,SbCNCl4O,-1.052308441
15119,UH12C4N4O11,-0.974722089
15120,NaYCO3F2,-3.114959187
15121,ErPH5CO7,-2.076246386
15122,NaTeH12(CO)3,-0.705644574
15123,CSCl(OF)3,-1.806417133
15124,Sb4OsC6(O3F11)2,-2.144231199
15125,HgTe2C2(NF8)2,-1.863343663
15126,CdFeC5N6O,0.223828028
15127,CS5N5O3F,-0.681920135
15128,Sb2OsC4(OF3)4,-2.06700974
15129,CuH12C4(NO)6,-0.905659596
15130,PH3PbCO3,-1.426207488
15131,GdH6C4NO9,-1.680203838
15132,K2CS2(O3F)2,-2.067089186
15133,C2SNCl2F5,-1.371634282
15134,P2H17C4NO8,-1.095491476
15135,GdH7C2SO8,-1.71607618
15136,Na2YC(OF)3,-3.078264497
15137,CSNO2F3,-1.558799486
15138,Na2Sn2C3(O2F)3,-2.040944741
15139,CuH8C4(NO3)2,-0.943896166
15140,Na4Zr2Ti(CO4)4,-2.609821556
15141,RbSb2C2O4F5,-2.258897144
15142,Na2NpH2(CO3)3,-2.068096045
15143,CuH10C2(NO)8,-0.745540668
15144,Sr3CePC3O13,-2.909229297
15145,LiPr2C2N4F3,-2.093843798
15146,K2Hg3C8(NO)8,-0.803996628
15147,PH8C2NO2,-0.830147503
15148,CoSnC4Cl3O4,-1.036892366
15149,K3CrC3N3O4,-0.783700674
15150,FeH12C2N2F5,-1.187013262
15151,K3VH2(CO5)2,-1.783624362
15152,Ni3H12C10NO6,-0.33564337
15153,Rb2Mo2H4C4O15,-1.787281842
15154,Sb3C2N(OF8)2,-2.278634834
15155,NiP2H24(C2O7)2,-1.214824528
15156,MnH11C5NO6,-0.978842959
15157,FeH44C12(N5O8)2,-0.730230875
15158,PdC2S2(O4F)2,-1.627395351
15159,K2NiH12(C2O7)2,-1.52779048
15160,KLaSi(CN2)4,-0.729715603
15161,MnH8C2NCl3,-0.713028149
15162,K2NaCo(CN)6,-0.284623538
15163,RbSi2H18C6N,-0.381881845
15164,MnH16C4(NCl2)2,-0.654035039
15165,H32WC8N4Cl7,-0.557450128
15166,RbLaSi(CN2)4,-0.727814911
15167,CoH16C4(NCl2)2,-0.575136883
15168,KHgC2IN2,-0.160480637
15169,CuH8C2(N6Cl)2,-0.266392893
15170,Mn2H30C9N3Cl7,-0.571315373
15171,CdH16C4(NCl2)2,-0.656899411
15172,InSi2P(H3C)8,-0.283158717
15173,MnH12C2(NCl2)2,-0.757355783
15174,HgH10C3I3N,-0.351337092
15175,SbH18C3(NCl2)3,-0.732777337
15176,Nb3H12C4NCl9,-0.884064626
15177,CuH5C5NCl,-0.142064697
15178,K2PtC4(IN2)2,-0.273214844
15179,TeH20C6(NCl3)2,-0.551722348
15180,SnH20C6(NCl3)2,-0.60095853
15181,Cs2ZnFe(CN)6,-0.287270515
15182,TaSi2H35(C3N)4,-0.327044058
15183,CdH8C2NCl3,-0.711129768
15184,H12W3C4NCl9,-0.700248168
15185,SnH16C4(NCl3)2,-0.688149142
15186,CuTe4H12C4N,-0.204305225
15187,H32RuC8N4Cl7,-0.545143587
15188,Cs2FeNi(CN)6,-0.209528834
15189,Hg2H10C3NCl5,-0.610284835
15190,TaH20C6N3Cl4,-0.564627446
15191,SbH16C4N2Cl5,-0.643823079
15192,Cs2LiIr(CN)6,-0.380176357
15193,CuH8C6(N3O)2,-0.231199883
15194,K2CuH8(CO3)4,-1.541533569
15195,H22RhC3(N3O4)2,-0.98338964
15196,NiH4C2(S2N)2,-0.432456034
15197,FeH24C8(NCl2)2,-0.403449877
15198,ZnH8C4(N4Cl)2,-0.499872053
15199,CuH12C5S4N,-0.312548975
15200,LuH24C4N4Cl7,-0.835352591
15201,Cs2PtC2(OF)4,-2.020148491
15202,TeH21C7(NCl2)3,-0.510466113
15203,ZrH36C16(NO4)4,-0.911126896
15204,SbH12C4NF4,-0.816915166
15205,NbH12C4NO13,-1.130220115
15206,GaH12C4NCl3,-0.548152331
15207,CoH18C4N7O8,-0.594657737
15208,NiH12C4(N2O3)2,-0.515861352
15209,V3H8C2NO7,-1.35976259
15210,CoH9C6(S2O)3,-0.513586886
15211,V3H6CNO7,-1.56333562
15212,SrCuH4(CO2)4,-0.808429882
15213,MnH9C4NO6,-1.049194512
15214,SbH12C5N3Cl4,-0.445559808
15215,Na3YH12(CO5)3,-1.84906829
15216,ZnH8C4(NO3)2,-0.571062723
15217,H7CSeN3O4,-0.546117352
15218,CuH10C2(N2O5)2,-0.952737837
15219,H7WC7NO5,-0.560698263
15220,FePH5CO4,-1.429996984
15221,K2VH4C4O9,-1.615592242
15222,ZnH14C2(N2Cl)4,-0.648350202
15223,FeH12C4NCl4,-0.531158636
15224,ZnH3CNO3,-1.32413682
15225,RbH5C7SO5,-0.897479636
15226,H10PtC(N4O)2,-0.409395561
15227,Ca4Si2H2CO11,-2.968938887
15228,GaSi4H30C10Cl,-0.332504506
15229,PH3W(CO)5,-0.630185835
15230,Sn2H21C6ClO2,-0.303835932
15231,VSnH9(CO)3,-0.750991653
15232,Rb4CeH12C3O17,-1.295866454
15233,CsU2H3(C2O7)2,-2.267785186
15234,HgH24C8(I2N)2,-0.292656216
15235,H24RuC8(S2Cl)2,-0.406567124
15236,Mg3H13C9NO13,-1.331786354
15237,Hg2H12C4I5N,-0.314231347
15238,Cu8Ge5C4(S2N)8,-0.077759005
15239,K2PtC4(SN)4,-0.176362896
15240,KHgC3(SN)3,-0.265832721
15241,NaMnCr(CN)6,-0.014704498
15242,Rb2FeC5N6O,-0.041610853
15243,Cs2KMn(CN)6,-0.269817321
15244,NaH4CNO2,-0.966559141
15245,Fe3H6C6(N3Cl4)2,-0.436442141
15246,LiCS(OF)3,-2.087332362
15247,MnFeC5N6O,0.141009734
15248,ZnFeC5N6O,0.627092628
15249,Mn2SnC10(ClO5)2,-0.873242487
15250,Eu4LiC3(IN2)3,-1.133736667
15251,Cs2MnFe(CN)6,-0.279407732
15252,CuHgC4(SN)4,0.004012225
15253,CaH2CClO3,-2.041460868
15254,MnHg2C6(SN)6,-0.097795916
15255,SbP3C(NCl5)3,-0.988218089
15256,Si2Os3C12(ClO2)6,-1.139958907
15257,CSN2OF2,-1.055718693
15258,CrCo3C16NO14,-0.684938208
15259,GeOs2C8(ClO2)4,-1.081747068
15260,K2PdC4(SN)4,-0.410584124
15261,Fe3WC14(SO7)2,-0.691277653
15262,MnTeC5O6F5,-1.412806578
15263,MnInFe(CO)9,-0.725706227
15264,Fe2Te2Ru2(CO)11,-0.729220354
15265,InRe2C10ClO10,-1.053660996
15266,Ge2RuC4(Cl3O2)2,-1.178795882
15267,CrFe2C10(Se2O5)2,-0.605876463
15268,POs6C18ClO18,-0.957915851
15269,Re2SnC10(ClO5)2,-0.476123739
15270,Fe2Co4Ge2(CO)21,-0.73297002
15271,Co2SnC8(ClO4)2,-0.929919471
15272,Tl2FeC5N6O,0.217534493
15273,CuH9C4NO6,-0.35671806
15274,FePH5CO8,-1.243230807
15275,CaCeC2O6F,-2.884911604
15276,SbRu2C6Cl7O6,-1.159431114
15277,PRuC4(OF)3,-1.262646901
15278,PRu5C16(O5F)3,-1.039702751
15279,PRu4C15O14F3,-1.054274651
15280,P2Os4C15O13F6,-1.144285323
15281,RbHgC3(SN)3,-0.271129827
15282,RbCS(OF)3,-2.088128475
15283,CSNOF5,-1.625149829
15284,CsNiC3(SN)3,-0.306830256
15285,PbCSNCl,-0.597374462
15286,ErH9C5(NO4)2,-1.318779611
15287,H24C8Se(NO2)2,-0.439817099
15288,Sb2H10C3NCl9,0.067675225