id,Composition,FormationEnergy
15289,K2Re3C2Se5N2,-0.524284151
15290,K2Ca2C2O3F2,-2.075842078
15291,Mn2InC10IO10,-0.78231168
15292,Mn2InC10ClO10,-0.838215823
15293,Cs4Re6C4S9N4,-0.846073287
15294,MgC2S2(OF3)2,-1.765510032
15295,H16PtC4(NCl3)2,-0.603019433
15296,Cs2LiMn(CN)6,-0.268805775
15297,Cu2H4C4N3O,0.250339472
15298,PuSi6H54(C6N)3,-0.369470516
15299,KCaCO3F,-2.811124728
15300,NiH6C2(SN2)2,-0.358031409
15301,Sb2OsC6(OF2)6,-1.930524076
15302,Cs2LiCo(CN)6,-0.31290508
15303,Sb2RuC6(OF2)6,-1.917331564
15304,Rb2NaCo(CN)6,-0.292557934
15305,NaH3CN4O,-0.636076866
15306,Cu4H24C13N7Cl,-0.175895177
15307,P4H35C4(NO)16,-1.048874429
15308,NaCS(OF)3,-2.052145073
15309,ZnH8C2(SN3)2,-0.331221054
15310,TiH12C2(NF)6,-1.397092891
15311,Na2CaPb3(CO3)5,-2.060040085
15312,SiH12C2(NF)6,-1.354942953
15313,SbH12C2N6F5,-1.12020151
15314,Cu2H6C3N4O,-0.32743587
15315,Cd3H2CSeO8,-1.532689147
15316,RbCoH24(C7N4)2,-0.163736274
15317,KMnH24(C7N4)2,-0.146764341
15318,LaH13C3S3O11,-1.424304896
15319,KYH4C4O9,-1.564714649
15320,CuH11C4(NO5)2,-1.132023587
15321,ZnH6C2(SO3)2,-1.117058056
15322,Rb2CuH4(C2O5)2,-1.589381922
15323,Si2CuH18C9O2,-0.365917915
15324,ZnH16C6(N3O5)2,-1.059092909
15325,CdH6C4(S2O)2,-0.525647842
15326,NiH10C4(SN4)2,-0.401113193
15327,HgH2C6(NCl2)2,0.776725117
15328,CuH36C8(N5O4)2,-0.700982609
15329,H22IrC3(N3O4)2,-0.975695487
15330,MgH10C4(N2O3)2,-1.124279161
15331,CdH9C3NCl3,-0.525271307
15332,CuH11C5NO6,-0.835527135
15333,CuH8C2NCl3,-0.590754375
15334,CdH12C2(NCl2)2,-0.75681208
15335,ZnH6C2(NCl2)2,-0.103932632
15336,SbH3CS2N,0.010264648
15337,H24PtC8(NF3)2,-0.65894038
15338,DyH9C5(NO4)2,-1.319202213
15339,NaLiH4C2O5,-1.56868666
15340,CdH9C2(N2O5)2,-0.978761835
15341,HgTe3H12C4N,-0.220380273
15342,SbH3C2(O2F3)2,-1.958762794
15343,YbSi6H54(C6N)3,-0.367269905
15344,Mn2SnC9ClO9,-0.799497972
15345,P5HC(NCl6)3,-0.956575746
15346,SbH6C(NCl2)3,-0.863486992
15347,Mn2Fe3Sn2(CO)19,-0.658923383
15348,CoSiC4Cl3O4,-1.104154563
15349,CrFe4P2(CO)18,-0.537689153
15350,K3VC5N5O,-0.478040925
15351,K3CrC5N6O,-0.301272869
15352,K4MoC5N6O,-0.452157944
15353,U3Cu2H10(CO10)2,-2.108826089
15354,V8Sn16H85(C8O9)4,-0.67716614
15355,Cr4H67C20(NO)16,-0.544057707
15356,H5CSO5F3,-1.64824994
15357,K4ZrH10C8O21,-1.635537803
15358,ZnH6C2(NO)4,-0.923158389
15359,HOs3C10ClO10,-0.968624749
15360,VH8C10N3Cl4,-0.363909072
15361,CuH4C3ClO2,-0.729163096
15362,HC5N3(OF4)2,-1.461580592
15363,H24PdC8(NCl2)2,-0.430925828
15364,LaH16C2N11O17,-1.067710067
15365,ZrH12C2(NF)6,-1.435461156
15366,NdH12C2N7O13,-1.193482107
15367,H6Os5Pt(CO)16,-0.847410096
15368,H3Ru3C10ClO9,-0.807457069
15369,H2Ru3C8SO8,-0.922916161
15370,HRu6C16NO16,-0.857321332
15371,CuH8CN5Cl3,-0.075646686
15372,HOs6C18S2O19,-0.969818274
15373,PH9C2N4O5,-1.166870053
15374,ZnH12C2(N3Cl2)2,-0.774369742
15375,CuH22C8N10O,-0.366219143
15376,Sb6H3CCl13O10,-1.337116763
15377,YH16C4N9O16,-1.099433559
15378,SbH32C8N4Cl7,-0.579251007
15379,Ca2CuH6(CO2)6,-1.601774634
15380,H20RuC6NO14,-1.158770788
15381,Sb2H30C9(NCl3)3,-0.586489933
15382,K3ErH9(C3O7)2,-1.599911957
15383,H21OsC9NO7,-0.593104317
15384,FeH16C4(NCl2)2,-0.584528679
15385,CoH4C4(NCl2)2,0.563662934
15386,VH21C7N4Cl7,-0.356673359
15387,CaH6C2(NO)4,-1.15219912
15388,H4Ru3C9N2O9,-0.819632471
15389,P3H22C3N9O11,-1.188909804
15390,H6Os5Pt2(CO)17,-0.832706179
15391,H2Ru6C18SO20,-1.019144952
15392,H9CSO7F3,-1.566261425
15393,Na2CuH4(C2O5)2,-1.574011202
15394,ZrH14C2(N4F3)2,-1.23227925
15395,ZrH7CN4F5,-1.630579712
15396,TmH16C4N11O13,-1.041342391
15397,PH11C(NO2)2,-0.970658872
15398,K4Tc2H6C8O21,-1.638482664
15399,SbH6CN3F4,-1.331491981
15400,H3Ru3Rh(CO)12,-0.87682315
15401,Cs2MgFe(CN)6,-0.471203699
15402,SbHC2NCl11,-0.802225897
15403,TlCuHCO4,-1.373382264
15404,Cs2MgH8(CO5)2,-1.826224653
15405,H2Pb4C(Cl3O2)2,-1.594284889
15406,CoH17C(NO)8,-0.80830212
15407,CoHRu3(CO)13,-0.897433774
15408,CrH10C2(NO4)2,-1.079622032
15409,Na2CoH8(CO5)2,-1.638029747
15410,HgH4C4(NCl2)2,0.356166233
15411,Sb4H8C2S7N,-0.501297836
15412,HgH16C6(N2Cl)2,-0.381320027
15413,VH24C4N4Cl7,-0.714239964
15414,InH8C8N4Cl7,0.445782801
15415,Hg2H2C2NCl5,-0.01567069
15416,LiH20C8ClO4,-0.588799334
15417,ZnH16C3N8O7,-0.859054449
15418,HgH3CSO3,-1.015114848
15419,NdH32C8N4Cl7,-0.685270931
15420,UH16C4(NO3)4,-1.339007186
15421,CuH9C4S4N,-0.284839095
15422,K5YH8(CO2)8,-1.672270509
15423,SbH24C6(NCl2)3,-0.628979656
15424,MnH19C6I3N2,-0.346444591
15425,H2Os4Pt(CO)15,-0.900749075
15426,MnPH5CO4,-1.491781221
15427,CoH9C4NO6,-1.008992399
15428,KCr2H(CO)10,-0.691016047
15429,KNiH9(CO5)2,-1.553081133
15430,CoH14C10(N4O)2,-0.291471979
15431,NiH14C10(N4O)2,-0.271096564
15432,VH16C4(NO4)3,-1.281302552
15433,KFeC6(NO)3,-0.370166123
15434,CrSb2H12(C2O)4,-0.393920617
15435,CrH9C6(S2O)3,-0.560457422
15436,K3VH6C4O13,-1.757323583
15437,CoH10C4(N2O3)2,-0.970209359
15438,CsVH12(C2O7)2,-1.586924001
15439,Na3CrH14(C3O8)2,-1.476117585
15440,CoH16C3N8O7,-0.839995008
15441,Na3CrH10C6O17,-1.64629086
15442,CoH16C4(NO)7,-0.607769374
15443,MnPH2(CO)4,-0.629545109
15444,Mn2PH9(C4O3)3,-0.597838589
15445,CoH18C6SO10,-0.637185753
15446,MnH30C8(N13O9)2,-0.665332981
15447,CoHRu(CO)6,-0.838208779
15448,Cr3H24C8(NO5)2,-0.694686347
15449,NiH10C2(N2O3)2,-0.985612483
15450,NiH44C12(N5O8)2,-0.700982903
15451,CoH22C3(N3O4)2,-0.974146062
15452,VH8C2NO3,-0.950260128
15453,K2Mn7H18(C9O20)2,-1.388553017
15454,Sr4LiCu(CO5)2,-2.541087951
15455,Li2NdPCO7,-2.760482702
15456,LiZrPCO7,-2.770671167
15457,Li2TlPCO7,-2.140231999
15458,LiHfPCO7,-2.826024749
15459,K3SnPCO7,-2.279320054
15460,K2CuPCO7,-2.066363886
15461,K2ErPCO7,-2.811579603
15462,LiSbCSO7,-1.966718137
15463,KPrPCO7,-2.639968956
15464,K2TiPCO7,-2.577655654
15465,LiCuCO3F,-1.832568696
15466,Li2LuPCO7,-2.812491913
15467,K2DyPCO7,-2.808945611
15468,Na3GePCO7,-2.231228263
15469,K3SbPCO7,-2.166261742
15470,K2YPCO7,-2.801177038
15471,Na2TlPCO7,-2.130315765
15472,K3GePCO7,-2.23421617
15473,KCePCO7,-2.785008322
15474,KSbPCO7,-2.15318684
15475,K3CaPCO7,-2.646893033
15476,KZrPCO7,-2.779684961
15477,H16Ru3C6(Cl3O7)2,-1.201241196
15478,NaH2C2N3O,-0.69358167
15479,H2RuC3(ClO2)2,-1.183062441
15480,NbH14C4NO14,-1.498840721
15481,NaYH8(CO3)4,-1.790560863
15482,CuH16C4(N5O)2,-0.543907079
15483,H18RuC6(SCl)3,-0.453040551
15484,Mn2PH2CO7,-2.083821315
15485,NaCoH2C3O7,-1.619720932
15486,Li3Cr2P2(CO7)2,-2.335469679
15487,LiCoH8(CO5)2,-1.522556354
15488,NaMnPCO7,-2.196479616
15489,NaNi4H9(CO5)3,-1.465231771
15490,RbCrH4(C2O5)2,-1.694095303
15491,MnPH2CO6,-2.023966348
15492,Li2DyPCO7,-2.79853926
15493,Li3ZnPCO7,-2.368180979
15494,Li2ScPCO7,-2.769294385
15495,Na2PRuCO7,-2.08412884
15496,K2HoPCO7,-2.810096136
15497,KNbPCO7,-2.466665394
15498,Na3CdPCO7,-2.2826333
15499,Na2YPCO7,-2.774456025
15500,Na2ScPCO7,-2.758941684
15501,Na2InPCO7,-2.334264319
15502,Na2SmPCO7,-2.762396568
15503,Na3CuPCO7,-2.152107223
15504,TbNa2PCO7,-2.778590314
15505,Na2LaPCO7,-2.775854113
15506,Na2CuPCO7,-2.050610352
15507,NaHfPCO7,-2.805654842
15508,NaCePCO7,-2.750974769
15509,Na2TiPCO7,-2.565687813
15510,NaTiPCO7,-2.659335892
15511,Na2LuPCO7,-2.799484238
15512,Na2TmPCO7,-2.79142367
15513,Na2ErPCO7,-2.784464007
15514,Na2NdPCO7,-2.750310337
15515,LiCrCO3F2,-2.388494907
15516,LiFeCO3F2,-2.259601409
15517,NaNdPCO7,-2.618445906
15518,NaPrPCO7,-2.611824708
15519,Sr2CrCO3F5,-3.24999298
15520,Sr2MnCO3F5,-3.154196247
15521,Li3Mn2C3O9F,-2.182894518
15522,LiVCO3F2,-2.485769959
15523,Sr2FeCO3F5,-3.154845101
15524,Na5Fe2P2(CO7)2,-2.305435729
15525,Na2FePCO7,-2.297582862
15526,Na3Ni2P2(CO7)2,-1.95204618
15527,Na5Mn2P2(CO7)2,-2.353849914
15528,Na2MnPCO7,-2.32219396
15529,Na2NiPCO7,-2.047147554
15530,Na5Ni2P2(CO7)2,-2.127505638
15531,Na3Mn2P2(CO7)2,-2.25842218
15532,NaVPCO7,-2.368542285
15533,NaSbPCO7,-2.120436555
15534,NaSnPCO7,-2.252777313
15535,Na2HoPCO7,-2.785523337
15536,Na2SnPCO7,-2.23312308
15537,Na2SbPCO7,-2.267649063
15538,NaZrPCO7,-2.752618786
15539,Na3MgPCO7,-2.550998293
15540,Na3TlPCO7,-2.151030545
15541,LiSnPCO7,-2.272072747
15542,LiSiPCO7,-2.525955125
15543,LiGePCO7,-2.255289028
15544,Li3CaPCO7,-2.660819546
15545,Li3MgPCO7,-2.605287665
15546,Li2SmPCO7,-2.774623745
15547,Li2ErPCO7,-2.804750396
15548,LiCePCO7,-2.751603791
15549,Li2HoPCO7,-2.797449153
15550,Li2SbPCO7,-2.254142806
15551,Li2TmPCO7,-2.807632253
15552,Li2YPCO7,-2.786127499
15553,LiPrPCO7,-2.630701117
15554,Na4Sn2C4SO16,-1.969209856
15555,Na4Sb2C4SO16,-1.925135902
15556,K3MgPCO7,-2.560952278
15557,Na2SnCSO7,-2.064242069
15558,LiCuHCO4,-1.587537247
15559,Na6Sn2C4SO16,-2.027414409
15560,Na6Sn2P(CO4)4,-2.049602042
15561,Na4V2C4SO16,-2.122041354
15562,Na2VPCO7,-2.439254988
15563,Na3Fe2P(CO4)4,-1.923645338
15564,KFePCO7,-2.160044937
15565,Na3VPCO7,-2.38456911
15566,NaCrPCO7,-2.227932008
15567,K2MnPCO7,-2.341124025
15568,NaFePCO7,-2.130122986
15569,Na3CrPCO7,-2.353826043
15570,Li5Fe2P2(CO7)2,-2.360156479
15571,Li3Fe2P2(CO7)2,-2.235907013
15572,Li3Mn2P2(CO7)2,-2.269810371
15573,Li5Mn2P2(CO7)2,-2.383533173
15574,K3NiPCO7,-2.198844406
15575,K3FePCO7,-2.332990929
15576,NaFeCSO7,-1.988177523
15577,Li2CrCSO7,-2.146609654
15578,Li2MnSiCO7,-2.333756892
15579,Li3VSiCO7,-2.544275953
15580,Na2NiCSO7,-1.962620728
15581,Li2VSiCO7,-2.506574031
15582,LiVSiCO7,-2.3979091
15583,LiNiCSO7,-1.775564804
15584,Na6SiNi2(CO4)4,-1.897704614
15585,Na6Cr2P(CO4)4,-2.156725499
15586,Na4Cr2C4SO16,-2.093078641
15587,Li2CoH8(CO5)2,-1.659629251
15588,Li6Fe2C4SO16,-2.051291999
15589,Li6Ni2P(CO4)4,-2.012539756
15590,Li2SiSnCO7,-2.398309721
15591,Na6Co2P(CO4)4,-2.01279045
15592,Li2SnCSO7,-2.073988983
15593,LiFeCSO7,-2.014716492
15594,Na3CoPCO7,-2.255676839
15595,Na3NiPCO7,-2.195406549
15596,Na2SiSbCO7,-2.255279144
15597,Na2CoPCO7,-2.15958684
15598,Li6Fe2P(CO4)4,-2.153247868
15599,Na6Cu2P(CO4)4,-1.933710742
15600,Na3SiCuCO7,-2.085734755
15601,Na4Co2P(CO4)4,-1.88328806
15602,Na3SiSnCO7,-2.284975965
15603,Li3SiSbCO7,-2.344067427
15604,Li3TlPCO7,-2.182735321
15605,Li6Mn2C4SO16,-2.168789642
15606,Na2MnSiCO7,-2.297162845
15607,Li3CoSiCO7,-2.286623751
15608,Na2CoSiCO7,-2.090812184
15609,Na3VSiCO7,-2.464369786
15610,Li2FeCSO7,-2.122245843
15611,Na3CrSiCO7,-2.424695141
15612,Na3SiNiCO7,-2.090840692
15613,Na3CoSiCO7,-2.212261908
15614,Na2FeCSO7,-2.095661245
15615,Na5Mn2P(CO4)4,-2.087804836
15616,Li2NiCSO7,-1.992488377
15617,Na3FeSiCO7,-2.348900234
15618,Na2SiSnCO7,-2.383548651
15619,Na5Co2P(CO4)4,-1.963620017
15620,Li6Mn2P(CO4)4,-2.17611244
15621,Li4Cr2C4SO16,-2.113446392
15622,Li2NiH8(CO5)2,-1.59975985
15623,Li2CuCSO7,-1.937424037
15624,LiSiSbCO7,-2.274750544
15625,Na2Fe2C4SO16,-1.807924215
15626,Li3SiCuCO7,-2.166099218
15627,LiVCSO7,-2.166322288
15628,NaCuCSO7,-1.754026441
15629,Na2MnCSO7,-2.160617433
15630,Li2CoCSO7,-2.047874831
15631,NaVSiCO7,-2.383230902
15632,Li2FeSiCO7,-2.250507491
15633,Na2CrSiCO7,-2.34103431
15634,Na3MnSiCO7,-2.367232555
15635,Na2FeSiCO7,-2.223247176
15636,NaSiSbCO7,-2.267764773
15637,Li3MnSiCO7,-2.436116617
15638,Na2VSiCO7,-2.471807431
15639,NaVCSO7,-2.139282921
15640,Na3SiSbCO7,-2.286050934
15641,YbLi3PCO7,-2.709234699
15642,K2ScPCO7,-2.775265878
15643,K2PrPCO7,-2.761784569
15644,K3SrPCO7,-2.632296139
15645,KHfPCO7,-2.839098738
15646,K2CePCO7,-2.743274228
15647,K2SnPCO7,-2.250698118
15648,K2TmPCO7,-2.820807402
15649,KSnPCO7,-2.292604659
15650,K3CuPCO7,-2.15129708
15651,K2LuPCO7,-2.82366454
15652,K2NdPCO7,-2.774446429
15653,KSiPCO7,-2.533011211
15654,KTiPCO7,-2.687608221
15655,K2SmPCO7,-2.784976298
15656,K2GaPCO7,-2.360547055
15657,TbK2PCO7,-2.805483444
15658,LiCrCSO7,-2.121614046
15659,NaCrCSO7,-2.093203641
15660,Na2CrCSO7,-2.127441237
15661,LiCoCSO7,-1.862661566
15662,Li3FeSiCO7,-2.419125567
15663,NaCoCSO7,-1.866436991
15664,Li2MnCSO7,-2.180755888
15665,KPWCO7,-2.269899603
15666,K2CrPCO7,-2.399375521
15667,K2VPCO7,-2.447020438
15668,K3CoPCO7,-2.252797096
15669,KVPCO7,-2.39329163
15670,Na2CoCSO7,-2.027221199
15671,KMnPCO7,-2.217601328
15672,K2FePCO7,-2.31155481
15673,K2CoPCO7,-2.165515393
15674,Li3CrSiCO7,-2.506149313
15675,K3CrPCO7,-2.360783799
15676,Sr2CoCO3F5,-2.988543512
15677,Na5Sn2P(CO4)4,-2.026125893
15678,Li4Cu2C4SO16,-1.798652178
15679,Li9Cr4C8(SO16)2,-2.11520011
15680,Li3CrH12(CO3)6,-1.646153085
15681,Na6Ni2C4SO16,-1.973117317
15682,Li4Mn2C4SO16,-2.039956086
15683,Li6Ni2C4SO16,-2.012129032
15684,Na5Cr2P(CO4)4,-2.142602093
15685,Li6V2C4SO16,-2.181790291
15686,Na4Mn2C4SO16,-2.021864667
15687,PH18C6N3O,-0.403477057
15688,Na4Fe2C4SO16,-2.002702816
15689,Na5V2P(CO4)4,-2.18337906
15690,Li4Ni2C4SO16,-1.804739115
15691,Na6V2P(CO4)4,-2.206420393
15692,LiMnCSO7,-2.057178791
15693,Na6Co2C4SO16,-2.025169433
15694,Li6Cu2C4SO16,-1.953910882
15695,Na6Cr2C4SO16,-2.069417965
15696,Na6Cu2C4SO16,-1.912677557
15697,Li4Fe2C4SO16,-2.023416777
15698,Na4Cr2P(CO4)4,-2.096585375
15699,Na4V2P(CO4)4,-2.14368467
15700,H12PtC6(N3O4)2,-0.910647964
15701,Na4Ni2C4SO16,-1.800570601
15702,Li6Co2C4SO16,-2.007981182
15703,Na6Mn2P(CO4)4,-2.155018738
15704,Na6V2C4SO16,-2.15169237
15705,CsCaCO3F,-2.804570038
15706,NaNiCSO7,-1.768744932
15707,KSrCO3F,-2.802193683
15708,RbCaCO3F,-2.811048837
15709,CdH10C3NCl3,-0.623870469
15710,SmH32C8N4Cl7,-0.686616969
15711,EuH32C8N4Cl7,-0.649686221
15712,CrH18C5(NO)4,-0.62905534
15713,V2Sn4H24C8O9,-0.786258723
15714,Hg2H6CN3Cl5,-0.782701569
15715,H8PdC2NCl3,-0.591229516
15716,KCoH3(CO2)3,-1.410767783
15717,ReH6CN3O4,-1.115408072
15718,H6PbCI3N,-0.512408616
15719,SnH22C6(NCl2)2,-0.522688817
15720,SnH16C4(NO4)3,-1.17178674
15721,GeH6CI3N,-0.422940348
15722,SiH6CI3N,-0.373842482
15723,SnH6CI3N,-0.479910635
15724,Ca7Ge,-0.012275806
15725,CaSe,-1.770699169
15726,Ca,0.152771095
15727,CaHg2,-0.17269884
15728,CaGe2,-0.464972973
15729,CaN2,-0.758377325
15730,Ca2Sn,-0.621809917
15731,Ca2Si,-0.44909281
15732,Ca2Ge,-0.602639285
15733,Ca2Pb,-0.523557547
15734,Ca3N2,-0.435225833
15735,Ca3Sb2,-0.602347172
15736,Ca3P2,-0.734032717
15737,Sr2CuC(NO)2,-1.523847547
15738,CaF2,-4.193630722
15739,CaTe,-1.343965765
15740,CaCd,-0.368983845
15741,CaCd2,-0.333334028
15742,CaGa2,-0.520692092
15743,CaHg,-0.563030175
15744,Ca3Hg2,-0.473396019
15745,CaSn3,-0.392108818
15746,Li2Ca,-0.013494812
15747,CaPd5,-0.376687038
15748,Ca11Sb10,-0.948652898
15749,Ca5Sb3,-0.991509988
15750,Ca4Hg9,-0.403484409
15751,Ca3Ga8,-0.437719588
15752,Ca2Cu,-0.115226109
15753,CaSi2,-0.302145913
15754,CaZn2,-0.275625922
15755,CaP,-1.096515972
15756,CaSi,-0.540505755
15757,Ca7Ge6,-0.640232392
15758,CaS,-2.487846417
15759,CaZn5,-0.221948053
15760,Ca3Cd2,-0.297897673
15761,CaZn11,-0.162531938
15762,CaCu5,-0.12220444
15763,Ca5Ge3,-0.631677621
15764,FeSb2C6(OF2)6,-1.810919235
15765,FeSb4C6(O3F11)2,-2.062575142
15766,CaGa4,-0.363761814
15767,CaPb,-0.529127177
15768,CaIn,-0.482106525
15769,CaPb3,-0.344051085
15770,Ca3In,-0.227293808
15771,Ca2In,-0.383369473
15772,CaIn2,-0.448645843
15773,CaPd,-0.68102627
15774,CaCl2,-2.792824362
15775,CaNi2,-0.191625443
15776,CS2NClO2,-0.866815243
15777,CaGe,-0.664588232
15778,KNa22C2S9ClO42,-2.290807013
15779,CaH2,-0.658949883
15780,H8C3SN(OF)3,-1.080864435
15781,H6CN3ClO,-0.731125739
15782,CuP2H8CN2O5,-1.041588199
15783,KH6C2S2NO4,-0.998737881
15784,RbH6C2S2NO4,-1.000396633
15785,CaH20C4S4(NO6)2,-1.122425546
15786,CdH20C4S4(NO6)2,-1.0114803
15787,GaH36C12S6(IO2)3,-0.528169227
15788,InH36C12S6(IO2)3,-0.519205956
15789,CaMg2,-0.122058944
15790,CaSn,-0.650175683
15791,ZnH8C2N4(ClO)2,-0.927008432
15792,KHoRuH8C6(N3O2)2,-0.85740842
15793,H12C4NClO4,-0.439737417
15794,CrH36C12S6(ClO2)3,-0.590393404
15795,CaO,-3.323272566
15796,Ca2N,-0.887332577
15797,Ca5Zn3,-0.195708943
15798,CaTl,-0.44743824
15799,Ca5P8,-0.91183875
15800,Ca14Si19,-0.466385371
15801,CaI2,-1.646928297
15802,CaCu,-0.149847323
15803,Ca3Ga5,-0.513153137
15804,Ca11Ga7,-0.392343819
15805,CaHg11,-0.062384021
15806,Ca3Pb,-0.388107703
15807,CaPt5,-0.533841947
15808,Ca3Tl,-0.177807165
15809,CaZn,-0.247362505
15810,Ca3Zn,-0.128760168
15811,Ca5Hg3,-0.439548516
15812,Ca7Sn6,-0.644249699
15813,MgP2H20C4(N2O3)4,-1.276926191
15814,PuH18C3S3(O2F)9,-1.726138032
15815,CaTl3,-0.24255582
15816,Zn2P3H19C4(NO6)2,-1.31993829
15817,ZnHg2H14C4N6O13,-0.878830777
15818,Na2FeH4C5(N2O)3,-0.40721926
15819,CaP2H20C4(N2O3)4,-1.303111599
15820,LaH18C3S3(O2F)9,-1.769697864
15821,LuH18C3S3(O2F)9,-1.765572214
15822,YH18C3S3(O2F)9,-1.765210562
15823,Ca3SiH30CSO25,-1.789230782
15824,KPH5C2S2(NO)3,-1.054389979
15825,HoH18C3S3(O2F)9,-1.766593385
15826,NdH18C3S3(O2F)9,-1.765235619
15827,SnH21C7S4N(O3F)2,-0.714384409
15828,H10C3NClO,-0.463840497
15829,H10C3NClO4,-0.485916815
15830,GaH20C2S2NO14,-1.338503606
15831,PH7CN3O3F,-1.27927538
15832,KCS2N(O2F)2,-1.549867694
15833,Rb2LiC3S3(OF)9,-2.099355123
15834,HoH16C2S2NO12,-1.481494899
15835,SrC4S4N2(O2F3)4,-1.821499979
15836,CSe2S2N2(OF)3,-1.101787379
15837,PH6C2S2N(ClO2)2,-0.88239514
15838,Cs3KRe6C6(S4N3)2,-0.713936869
15839,Sb4IrC5ClO5F22,-2.140535079
15840,H6C3SN3O2F3,-0.804007029
15841,MgH8C2S2(NO2)2,-1.100495828
15842,P2H6C4N2Cl2O,-0.43102749
15843,LiC2S2N(O2F3)2,-1.763612496
15844,H12PbC4S4(NO4)2,-0.877617391
15845,SnH58C16S4(N11O9)2,-0.778913306
15846,YH24C9N6(ClO)3,-0.736673495
15847,Na2Ce2TiSi(CO6)2,-2.940628847
15848,H9C3SeSN2Cl,-0.155878491
15849,H3CSN(ClO)2,-0.645648851
15850,PH10C3N2O4F,-1.094766058
15851,SrH12C4S4(NO4)2,-1.025728688
15852,RbC2S2N(OF)4,-1.60015582
15853,H18PbC6S4N2O9,-0.808777624
15854,ScH24C3S3(N3O5)3,-1.24770615
15855,PH16C6S2NO4,-0.564746171
15856,PH9C3S2NClO4,-0.751500614
15857,H5CSN2Cl,-0.610674381
15858,SiH8C2NClO,-0.50806388
15859,H8CN2(ClO5)2,-0.669884558
15860,H14RhC6NClO4,-0.694398069
15861,SbH3CSCl6O,-0.948861849
15862,SnH4C2NO4F,-1.392474457
15863,CuH14C3NCl3O2,-0.721743569
15864,PH8C2SNO2,-0.771593551
15865,VH16C6N6O7F2,-1.034060664
15866,VH14C4NO2F3,-0.981106041
15867,Fe2Te2W(CO)10,-0.595548249
15868,FeH14C4NOF4,-0.965131652
15869,MoC3S2Cl7O,-0.823397065
15870,P2H19C6I2NCl4,-0.466127917
15871,GdH8C10N(O2F3)4,-1.587579412
15872,TaSi2PH18C6(NCl3)2,-0.656927105
15873,Ca36Sn23,-0.654273931
15874,Ca28Ga11,-0.315083599
15875,ZrCuH8C2NCl6,-1.019893144
15876,Ca5Ir,-0.236551593
15877,CaIr2,-0.451601933
15878,CaRh2,-0.421294073
15879,Ca3Hg,-0.193799814
15880,SbPC3S3N3Cl3O,-0.669296917
15881,Cs3SrCu2C7(SN)7,-0.553962102
15882,CsC2S2N(O2F3)2,-1.784385376
15883,Ca5Pb3,-0.533273506
15884,Sb2Te3MoC4(OF3)4,-1.792984282
15885,NiH32C8S4(NO5)2,-0.772178798
15886,Mn2P2C12S(O2F3)4,-1.247617444
15887,LaH24C3N3(Cl2O)3,-1.016862288
15888,H10C5SeS2N3Cl,-0.262940156
15889,PH9C2NO3F,-1.038819733
15890,RuH8C5N(ClO)3,-0.789118828
15891,LiCoH24C8(N2O3)4,-0.590796761
15892,MnH14C3NCl3O2,-0.840957396
15893,MnH10CNCl3O2,-1.061532264
15894,Mo2H26C8N2O5F6,-0.943070279
15895,NiH14C3NCl3O2,-0.737210281
15896,CoH32C8S4(NO5)2,-0.631474291
15897,CoH14C3NCl3O2,-0.772281172
15898,Mo12PH24C6N3O40,-1.464695245
15899,PH15C18INCl2,-0.092133215
15900,NaH2CSO4F3,-1.885261767
15901,H12W3C4S2Cl9O2,-0.646791428
15902,Tl2HPtC5N5O,-0.056508916
15903,CoH21C2N6Cl2O5,-0.912691159
15904,V2CoH4C4(NO3)2,-1.083995346
15905,K2FePH5(CO5)2,-1.893280435
15906,NiH18C4S6(N2O)4,-0.611638755
15907,LiH8C2S2NO5,-1.054618843
15908,P2H6C5N2Cl4O,-0.379077528
15909,KDyH2C2SO9,-2.21538246
15910,GaCoPH18C9NCl2O3,-0.534809957
15911,DyH6C6Cl3(O3F2)3,-1.682577082
15912,K3UH6C5SNO13,-1.769327312
15913,GdH6C6Cl3(O3F2)3,-1.667300254
15914,MgH16C4S4N2(O4F3)4,-1.208412878
15915,MnC6S2NO5F6,-1.163040247
15916,Fe2TeWC10SeO10,-0.602484166
15917,Fe2MoC10(SeO5)2,-0.655241777
15918,Fe2WC10(SeO5)2,-0.621402153
15919,KGaCoC4Cl3O4,-1.227447166
15920,CaO2,-2.208287698
15921,MoP4C5S3O5,-0.704255806
15922,HPbCSNO,-0.733723001
15923,H3CSClO,-0.720987085
15924,FeSb2WC8Se2(O2F3)4,-1.533113833
15925,K3WC4N4OF,-0.770919773
15926,Mo2H12C4N2O15,-0.600180124
15927,CaZn13,-0.132606459
15928,CaN6,-0.480753785
15929,Cs3MoC6(SN2)3,0.059023206
15930,H12C4S3(N3Cl2)2,-0.350252386
15931,Mo3H24C8S13N2,-0.492317242
15932,Ca31Sn20,-0.65829605
15933,CdHg3C6S6(N3Cl)2,-0.192216098
15934,CaZn3,-0.000707758
15935,Ca11N8,-0.726000053
15936,Fe4Te2MoC14(SO7)2,-0.613065414
15937,Fe3MoC11SeS3O11,-0.648115666
15938,Na2MoC3SeN3,-0.410258817
15939,GaGe5H6C4NO12,-1.148776585
15940,Ca2F,-1.995006473
15941,KC2S2N(O2F3)2,-1.777825959
15942,H8CS(NO)4,-0.968513501
15943,CdH20C2S2(NO2)6,-0.374261458
15944,CaGa,-0.473130293
15945,VP2C4N3(ClF6)2,-1.489929151
15946,Ti2H2CSe4Cl16O5,-0.969029515
15947,ScH16C3S3O17F9,-1.756143739