id,Composition,FormationEnergy
24962,CsScO2,-3.003582507
24963,Cs3TmO3,-2.25602188
24964,Cs2NpO3,-2.531480623
24965,CsInO2,-1.765603799
24966,Cs2O,-1.152936274
24967,Cs3LaO3,-2.169790313
24968,Cs3YO3,-2.212557074
24969,CsGdO2,-2.931979708
24970,Cs3TlO3,-1.386071749
24971,Cs3ScO3,-2.294329737
24972,Cs3ErO3,-2.242998338
24973,CsSi3HO7,-2.937137194
24974,CsLiF2,-3.033684299
24975,Li2CrSn(PO4)2,-2.473779417
24976,Cs2WO4,-2.270178674
24977,Li4Cr3Ni(PO4)4,-2.503848777
24978,Li4Ti2Nb3Cr3O16,-2.713055773
24979,Li4Mn3Cr3(NiO8)2,-1.921431385
24980,Li4Mn3Cr3(FeO8)2,-2.11236734
24981,Li4Nb3V3Cr2O16,-2.60017639
24982,Li6Cr3Ni(PO4)6,-2.536061272
24983,Li2MnCr(PO4)2,-2.613887252
24984,Cs3YF6,-3.530701527
24985,Li6V3Cr(PO4)6,-2.678834268
24986,Li2CrNi(PO4)2,-2.429146567
24987,Li6Cr3Sb(PO4)6,-2.576007376
24988,Li5Cr2Fe3(PO4)6,-2.502867101
24989,Li6Cr3P6WO24,-2.58371628
24990,Li6Ti3Cr(PO4)6,-2.81586732
24991,Mn3CrNi2(PO4)6,-2.288882723
24992,Li3Cr4P2O8F9,-2.808213748
24993,Li2Cr2P2O7F2,-2.66146658
24994,Li3CrP2HO8,-2.506223144
24995,Li4CrP6(H4O11)2,-2.240249215
24996,Li2Cr2P4H3O16,-2.364085949
24997,Li4CrP2(O4F)2,-2.671769506
24998,Li4Mn5Cr(PO4)6,-2.547421081
24999,Li4Ti3Nb3Cr2O16,-2.819201483
25000,Li6NbCr3(PO4)6,-2.637837308
25001,Cs(WO3)3,-2.247949045
25002,Li2CrP4(H4O5)4,-1.944843805
25003,Li19Cr4P8O35F,-2.660740795
25004,Li2VCr(P2O7)2,-2.714082393
25005,Li2VCrP2(O4F)2,-2.806478928
25006,Li2VCrP2(HO5)2,-2.490351613
25007,Li4CrNi5(PO4)6,-2.207154169
25008,Cs2PrO3,-2.209799641
25009,Mn2CrNi3(PO4)6,-2.146023971
25010,Li5Mn3Cr(PO4)4,-2.530264133
25011,LiVCrP2(HO5)2,-2.428944163
25012,LiVCrP2(O4F)2,-2.736269764
25013,Li3VCr(P2O7)2,-2.680207457
25014,VCrP2(O4F)2,-2.60986643
25015,Li10Mn2V3Cr3O16,-2.274411341
25016,Li10Cr3P6(O4F)6,-2.590982212
25017,Mn3VCr2(PO4)6,-2.476321944
25018,Li7CrFe3(PO4)6,-2.557562164
25019,Li4Ti3Cr3(TeO8)2,-2.52161836
25020,LiCrPHO5,-2.46147939
25021,Li4Nb3Cr2Fe3O16,-2.391049683
25022,Li3VCrP2(O4F)2,-2.747008417
25023,Li4CrNi3(PO4)4,-2.336296981
25024,Li4Mn2Cr3Fe3O16,-2.046128403
25025,Li4Mn3Cr(PO4)4,-2.631417386
25026,Li3Cr2P4HO14,-2.517498775
25027,Li3VCrP2(HO5)2,-2.431011567
25028,Li6MnCr3(PO4)6,-2.606580725
25029,Li6CrFe3(PO4)6,-2.553939854
25030,Li4MnCr3(PO4)4,-2.595903571
25031,Li4Ti3Mn4Cr2O18,-2.517598019
25032,Cs3NO4,-1.369255613
25033,Cs4Zr3Se14,-1.062947126
25034,Cs5YO4,-1.909516433
25035,V3CrNi2(PO4)6,-2.475643346
25036,Li4Ti4MnCr4O18,-2.71024388
25037,Li4Ti4Mn4CrO18,-2.637904266
25038,LiMgCr3Se2(SO6)4,-2.007125434
25039,Li4V3Cr3(TeO8)2,-2.230216906
25040,Mn2V3Cr(PO4)6,-2.623942143
25041,Li4V2Cr3Ni3O16,-1.948958327
25042,Li4NbCr(WO6)2,-2.458030943
25043,Cs2NiO2,-1.179537527
25044,Li4Mn3V2Cr3O16,-2.27672521
25045,Cs6Ti2O7,-2.521078899
25046,Li4Ti2Mn3Cr3O16,-2.494708643
25047,Cs3GaO3,-1.819465413
25048,Li6Cr3Fe(PO4)6,-2.608070236
25049,Li4Mn3V3Cr2O16,-2.29534356
25050,Li5CrP2(O4F)2,-2.768095293
25051,Li4Nb2V3Cr3O16,-2.611734151
25052,Li4VCr(TeO6)2,-2.028303918
25053,Li6Mn3Cr(PO4)6,-2.550331718
25054,Cs4HfO4,-2.369157676
25055,CsY3O5,-3.529976925
25056,CsLa3O5,-3.431519963
25057,Cs4SiO4,-2.23768797
25058,Cs4GeO4,-1.884104482
25059,Li6CrSn3(PO4)6,-2.514541078
25060,Li8Mn3Cr(PO4)6,-2.637631992
25061,Li4Ti3Mn3Cr2O16,-2.611035368
25062,Li4Mn3Nb2Cr3O16,-2.473883979
25063,Li4Nb2Cr3Fe3O16,-2.432594318
25064,LiTi3MnCr(PO4)6,-2.917734972
25065,Ti3MnCr(PO4)6,-2.863647557
25066,Li4Cr3Fe3(TeO8)2,-2.040121157
25067,Na2Ti3Cr(PO4)6,-2.888147188
25068,Li4Mn2V3Cr3O16,-2.332393127
25069,Li2MgCr3Se3(SO8)3,-1.916238379
25070,Ti3Mn2Cr(PO4)6,-2.871994925
25071,Li4Cr2P4H3O16,-2.456605696
25072,Li2Cr3P4(HO4)4,-2.324485494
25073,Li10Mn3Cr3(NiO8)2,-2.026232563
25074,Li4Mn2CrNi3(PO4)6,-2.341164514
25075,Li10Cr3Fe3(NiO8)2,-2.000811529
25076,Li4Nb2Cr3Cu3O16,-2.138720475
25077,Li4Mn2Cr3Sn3O16,-2.173245324
25078,Li4Ti2Mn4Cr3O18,-2.375656609
25079,Li6Cr3Cu(PO4)6,-2.524338427
25080,Li4V2CrTeO12,-2.123661055
25081,Li4Mn3Cr2Sn3O16,-2.141078284
25082,Li4Cr3Ni3(SnO8)2,-1.828893732
25083,Li4Cr3Ni2Sn3O16,-1.926120863
25084,Mn3NbCr2(PO4)6,-2.55108
25085,Mn3CrSn2(PO4)6,-2.434582786
25086,Cr2Fe3Ni(PO4)6,-2.34724246
25087,Mn3Cr2Ni(PO4)6,-2.343383937
25088,MnCr2Fe3(PO4)6,-2.435619781
25089,Li4Mn3NbCr2(PO4)6,-2.563106845
25090,Li4CrFe2Ni3(PO4)6,-2.316535984
25091,Li4Mn3Cr3(SnO8)2,-2.214049376
25092,Li8Mn7Cr(PO4)12,-2.496714781
25093,Li4Ti3Nb2Cr3O16,-2.820064799
25094,TiMn3Cr2(PO4)6,-2.57373879
25095,NaLi3Ti2Cr2(PO4)6,-2.829323286
25096,Cr2Fe3Te(PO4)6,-2.356809003
25097,Li10Mn3Cr3(FeO8)2,-2.121253665
25098,MnCr2Ni3(PO4)6,-2.164091588
25099,Li4Ti3Mn2Cr3O16,-2.648921722
25100,Li4TiMn3Cr2(PO4)6,-2.620149131
25101,CsCu4S3,-0.657786525
25102,CsCu3S2,-0.770915215
25103,Li4Cr2Ni3Sn(PO4)6,-2.320519212
25104,Li10Mn3Cr2Ni3O16,-1.919548066
25105,Li4MnCr2Fe3(PO4)6,-2.48476456
25106,Li4Nb2Cr3Ni3O16,-2.146745504
25107,Cs2HfO3,-2.787587626
25108,Li2CrPHO5,-2.351877234
25109,Cs3DyO3,-2.225413857
25110,Li2CrP4(H2O3)6,-2.018134468
25111,LiCrP2HO7,-2.450232764
25112,Li2V4CrCuO12,-2.229414063
25113,Li7Cr3Fe(PO4)6,-2.605175168
25114,LiCrP2H5O9,-2.085604945
25115,LiCr3P3(HO6)2,-2.352127187
25116,LiCrPH2O5,-2.155959628
25117,Cs2RbYF6,-3.591867319
25118,CsO,-1.250671478
25119,Cs2ZrF6,-3.702674184
25120,V3Cr2Ni(PO4)6,-2.501497304
25121,CsSmO2,-2.917095287
25122,CsRuF6,-2.492348
25123,Cs2PtF6,-2.47508976
25124,CsRb2PdF5,-2.538773418
25125,Cs2GeF6,-3.083574519
25126,Cs2Li2TiO4,-2.549862217
25127,Cs2Li2GeO4,-2.125521271
25128,CsTe,-0.866494779
25129,EuCsF3,-3.603935205
25130,CsSrF3,-3.699496778
25131,YbCsF3,-3.918021772
25132,CsMgF3,-3.452437529
25133,LiCrP3H8O13,-1.976284935
25134,Li8CrFe7(PO4)12,-2.486376844
25135,Li4Mn3Cr2Fe3O16,-2.043077883
25136,Li7TiCr3(PO4)6,-2.660980071
25137,CrFe3Ni2(PO4)6,-2.273916775
25138,VCr2Ni3(PO4)6,-2.244698268
25139,Li9Nb10Cr6(PO4)24,-2.77254916
25140,Mn2CrFe3(PO4)6,-2.432790114
25141,Cs3Rb,0.001431411
25142,CsNd2CuSe4,-1.502596986
25143,CsNpCuS3,-1.508890573
25144,CsUO3,-3.230728122
25145,CsSn3,-0.161503902
25146,CsTaGeS5,-1.283199883
25147,CsNaSe,-1.10580021
25148,Cs2MoSe4,-0.881016501
25149,Cs4P2PdSe8,-0.756420046
25150,Cs2Mn(PSe3)2,-0.613143392
25151,CsTi8O16,-3.424625318
25152,CsTi6O12,-3.397269258
25153,Cs2SnO3,-1.927628147
25154,Li4Mn2Nb3Cr3O16,-2.547230771
25155,Li2CrFe(PO4)2,-2.552199606
25156,Li6Mn3Cr2Fe3O16,-2.08033922
25157,Tb3Cs2Li14O14,-2.345437229
25158,Cs2ZrO3,-2.760282569
25159,Cs(SbS2)2,-0.907572424
25160,Cs2SiP2,-0.486050288
25161,CsK2PdF5,-2.552404238
25162,Cs2HgF4,-2.472721294
25163,CsNbN2,-0.933257081
25164,Cs2NbF6,-3.273254151
25165,CsPrS2,-2.136037487
25166,CsNdS2,-2.141099548
25167,CsSmS2,-2.151431452
25168,CsGdS2,-2.159269478
25169,TbCsS2,-2.166166746
25170,CsDyS2,-2.1657434
25171,CsTmS2,-2.155955751
25172,YbCsS2,-1.608176582
25173,Cs2ZrCu3F12,-2.75561838
25174,CsTeSe3,-0.478056724
25175,CsReF6,-2.750324563
25176,CsSbF6,-2.950680986
25177,Cs6GaSb3,-0.425565717
25178,CsMg149,0.015813168
25179,YbCs3,0.161010466
25180,CsGeO3,-1.307637816
25181,CsGdO3,-2.28894621
25182,CsIrO3,-1.057128413
25183,CsKO3,-0.440047669
25184,CsGaH4,-0.302543666
25185,CsSnO3,-1.554015945
25186,CsMgO3,-1.352932968
25187,CsRb2Sb,-0.349723252
25188,CsY,0.69854605
25189,CsIr,1.85770123
25190,Cs2ZrSe3,-1.395881261
25191,Cs3Ni,0.678903015
25192,CsV5S8,-1.365861829
25193,Cs2RbNF6,-1.885093523
25194,Cs2RbPbF6,-2.783664102
25195,Cs2KTlF6,-2.757433727
25196,Cs2NaNF6,-1.867121359
25197,Cs2KGaF6,-3.104852516
25198,Cs2LiNF6,-1.832081033
25199,Cs2TlInF6,-2.820639212
25200,Cs2TlGaH6,-0.110987667
25201,Cs2NaPbF6,-2.802374998
25202,Cs2TlGaF6,-2.880465328
25203,Cs2NaLiF6,-2.459725987
25204,Cs2TlSiH6,-0.13217518
25205,Cs2LiTlF6,-2.738671249
25206,Cs2RbTlF6,-2.73380823
25207,Cs2NaMgF6,-2.994474499
25208,Cs2NaSrF6,-3.046252554
25209,Cs2KNF6,-1.900550762
25210,Cs2KPbF6,-2.807176737
25211,Cs2NaGaH6,-0.209098785
25212,CsRb2InF6,-2.946688493
25213,Cs2RbInF6,-3.02176069
25214,Cs2NaInH6,-0.191277215
25215,Cs2RbGaF6,-3.08528493
25216,CsRb2GaF6,-3.021733783
25217,Cs2KInF6,-3.044797907
25218,Cs2Si(HO2)2,-2.17300181
25219,Cs2TlInH6,-0.084893781
25220,Li6TiCr3(PO4)6,-2.692246079
25221,CsNa7Ta8O24,-3.036645988
25222,CsTlF3,-2.475040752
25223,CsSnF3,-2.78058059
25224,CsNaF3,-2.423288423
25225,CsInI3,-0.938931682
25226,CsInF3,-2.681793436
25227,CsSrI3,-1.64491265
25228,Sr3Cr2Cu2S2O5,-2.170976836
25229,Cu2PPd2,-0.280846787
25230,LuCuS2,-1.70396344
25231,CuI,-0.096162688
25232,RbCuO,-0.203260084
25233,NaCuO,-0.704471242
25234,CuN,0.835471144
25235,LiCuO,-1.04251528
25236,KCuO,-0.37939305
25237,KCu4Se3,-0.363159052
25238,Cu,0.03467059
25239,CuNi3N,-0.085997032
25240,CuPd,-0.12800505
25241,InCu,0.041809418
25242,ScCu2,-0.25442908
25243,Ho(CuS)2,-1.057037228
25244,Lu(CuS)2,-1.006522542
25245,Tb(CuS)2,-1.081628125
25246,Tm(CuS)2,-1.035442979
25247,ErCuSn,-0.538659405
25248,GdCuPb,-0.351010593
25249,HfCuSn,-0.269996862
25250,HfGaCu,-0.383688805
25251,HoCuSn,-0.549742338
25252,In2Cu,0.165407213
25253,LaCuPb,-0.417404286
25254,MgCuGe,0.06100216
25255,PrCuSn,-0.569771413
25256,PrCuPb,-0.377726043
25257,TbCuSn,-0.568461327
25258,CsPPb(IF3)2,-2.391311952
25259,Cu2Se,-0.001550149
25260,K2CuO2,-0.569221536
25261,Cu3O2,-0.609755628
25262,CuS,-0.403416097
25263,Cu4O3,-0.715112111
25264,Zr3(SiCu)4,-0.581734745
25265,Hf3(SiCu)4,-0.508022232
25266,TmInCu4,-0.288315754
25267,ErCu2,-0.278960218
25268,GdCu4Pd,-0.335941109
25269,YbMgCu4,-0.245741907
25270,PuCu2,0.007000308
25271,LuCu2,-0.289849615
25272,HoCu4Pd,-0.369727473
25273,Rb2CuF4,-2.526907426
25274,Nb2CuS4,-0.847645279
25275,Tl2CuF4,-1.951778976
25276,SrCu,-0.110546141
25277,CuGe3,0.30595099
25278,TlCu4Se3,-0.174160096
25279,TiCuF6,-3.007565024
25280,RbCu4S3,-0.654686128
25281,Th2Cu,-0.095890293
25282,Hf3(Cu2Ge)2,-0.435459045
25283,MgCu2,-0.145415352
25284,K2CuSb,-0.319672271
25285,Si(Cu4Se3)2,-0.127266252
25286,NdCuS2,-1.712935295
25287,Pr2CuO4,-2.877096992
25288,Cu2SnS3,-0.66180595
25289,YCuS2,-1.707736533
25290,CuSn,-0.026504425
25291,CuF,-1.027043188
25292,CuS2,-0.538860492
25293,SrCuSb,-0.709069957
25294,YbCsK2(PO4)2,-2.81654695
25295,La2MgCu2,-0.199517595
25296,SrCu9Ge4,-0.159142945
25297,Ga2Cu,-0.08834549
25298,ScGaCu2,-0.378164741
25299,MgCuSn,-0.177740898
25300,TbCu5,-0.186702919
25301,TiCu,-0.051977323
25302,Ti3Cu,0.022390277
25303,ZrZnCu2,-0.219810512
25304,NdCu5,-0.158821661
25305,Eu3(Cu2Sn)4,-0.304070851
25306,ScCu,-0.27157447
25307,YbCuSb,-0.72798373
25308,CuNiSb2,-0.14874622
25309,NdCu2,-0.208113167
25310,TiCuHg2,0.185018741
25311,Cu3Pt,-0.137705227
25312,Cu2S,-0.268259698
25313,InCu2,0.08436065
25314,CuF2,-1.815118039
25315,Cu6Sn5,-0.013711354
25316,TmCuS2,-1.706141218
25317,TiCu3,-0.089952104
25318,SmCu,-0.174357325
25319,CuPt7,-0.07640615
25320,Dy3(SiCu)4,-0.63957268
25321,SmCuSn,-0.600058257
25322,ThCu6,-0.144464757
25323,LaMgCu2,-0.183052996
25324,Ti5CuSb2,-0.387926343
25325,EuCuSn2,-0.432729456
25326,Cu3Sn,0.006351798
25327,YMgCu,-0.220748708
25328,YMgCu4,-0.234708204
25329,ScCuSn,-0.541772178
25330,GdCuGe,-0.67158565
25331,YMg2Cu9,-0.172293535
25332,PrMg2Cu9,-0.159606175
25333,NdMg2Cu9,-0.16412475
25334,SmMg2Cu9,-0.169736281
25335,EuMg2Cu9,-0.134334518
25336,DyMg2Cu9,-0.175348087
25337,HoMg2Cu9,-0.174532391
25338,ScInCu4,-0.265574377
25339,NdCu,-0.185785021
25340,ThCu5Sn,-0.232463018
25341,Cu3N,0.794811239
25342,Zn8Cu5,-0.101206787
25343,ThCu2,-0.206042217
25344,Si(Cu4S3)2,-0.506727215
25345,CuSnF6,-2.432096778
25346,Nb5(SiCu)4,-0.491754309
25347,Cu3P,-0.021396724
25348,Si4Cu15,-0.070124118
25349,CuO,-0.784572116
25350,Cu(IrS2)2,-0.742577714
25351,Cs4KLiGa2F12,-3.111772178
25352,TbCu2,-0.266267569
25353,La5Cu19P12,-0.542333005
25354,ScSiCu,-0.668854779
25355,Cu(RhS2)2,-0.814608141
25356,Cu(RhSe2)2,-0.386844184
25357,Hf(CuP)2,-0.619019426
25358,Hf3(SiCu2)2,-0.500654218
25359,YbCu5,-0.229490495
25360,MnCu2Sb,0.222002752
25361,SrCuP,-0.824395561
25362,Zr2CuSb3,-0.467377765
25363,Nd2MgCu2,-0.195077144
25364,CsNa3Li12(GeO4)4,-2.238875333
25365,K3(Cu4S3)2,-0.729920077
25366,NpCuSe2,-0.773749739
25367,Yb3Cu6Sn5,-0.372945439
25368,Na2Cu4S3,-0.730479183
25369,CsKNa2Li12(SiO4)4,-2.633334574
25370,Cu2Sb,0.017751925
25371,TbCu,-0.235092128
25372,Cu2Te,0.092081608
25373,Zr2Cu,-0.13573622
25374,YbCu,-0.299901145
25375,NdCu6,-0.133674292
25376,ErCu,-0.27009772
25377,HoCu,-0.25899215
25378,Cu3Ge,-0.008712189
25379,Cs2CuPb(NO2)6,-1.116124532
25380,TbInCu,-0.427092801
25381,PrCuSb2,-0.674283791
25382,YbCuS2,-1.386125086
25383,Hf2CuSb3,-0.356071775
25384,YInCu2,-0.326341558
25385,ZrSi2Cu,-0.526805699
25386,TiCuSn,-0.221644837
25387,CuSe2,-0.086512424
25388,Cu3Sb,0.173556003
25389,NdCuSb2,-0.669443955
25390,Cu10Sb3,0.066550951
25391,TiSiCu,-0.539490987
25392,Np(CuGe)2,0.048150555
25393,CuSbSe2,-0.208347092
25394,HfSi2Cu,-0.472894996
25395,In2CuO4,-1.475178514
25396,LaInCu2,-0.284637482
25397,GdCuSb2,-0.634182488
25398,LaCu2,-0.217822066
25399,EuCu5,-0.112440594
25400,TmCuPb,-0.360349695
25401,Gd(SiCu)2,-0.609528997
25402,Cu3Se2,-0.132599232
25403,Gd(CuO2)2,-2.051377052
25404,NdCuSn,-0.588602363
25405,Gd(CuGe)2,-0.525839511
25406,CuTe,-0.063091145
25407,Dy3(CuSn)4,-0.509466437
25408,DyCuSb2,-0.609687709
25409,InCuO2,-1.504643473
25410,HoCuSb2,-0.592430581
25411,ScInCu2,-0.318916995
25412,PrInCu2,-0.28376153
25413,NdInCu2,-0.296194494
25414,EuCuP,-0.887717366
25415,GdCuSn,-0.606327915
25416,Ti3Cu3O,-0.937352255
25417,SmInCu2,-0.311225063
25418,U(CuP)2,-0.476748628
25419,Yb2InCu2,-0.370664378
25420,In2Cu2O5,-1.496360132
25421,ThInCu5,-0.209265045
25422,Nd(Cu2P)2,-0.533078988
25423,In9(CuSe4)4,-0.317967177
25424,VCu3Se4,-0.489795291
25425,FeCu2Sn,0.232764393
25426,In3Cu7,-0.012074409
25427,ZrCu,-0.111249795
25428,Cu3SbS4,-0.551783198
25429,DyCuSn,-0.605229505
25430,TbInCu4,-0.278814611
25431,InCuTe2,-0.27836326
25432,EuCuSb,-0.714708743
25433,Eu2CuO4,-2.521629995
25434,U(SiCu)2,-0.252540477
25435,TbCuSb2,-0.623541717
25436,HfSiCu,-0.606259123
25437,ZrSiCu,-0.667559973
25438,MnInCu2,0.069695685
25439,DyInCu2,-0.330731605
25440,TbInCu2,-0.330587734
25441,NdInCu,-0.396019239
25442,SmCu5,-0.171752813
25443,TiInCu2,-0.114610514
25444,InCuS2,-0.822951466
25445,InCuSe2,-0.442766364
25446,DyCu,-0.248378745
25447,Cu2HgI4,-0.238481813
25448,CuH,0.061307868
25449,CsGaP3HO10,-2.556050549
25450,PrCu5,-0.149263312
25451,Mg2Cu,-0.115343857
25452,CuO2,-0.539720881
25453,CsMnP3HO10,-2.515577703
25454,Cs2FeH12(SO7)2,-1.752665704
25455,LaCu5,-0.151624375
25456,Ti3Cu4,-0.126072406
25457,YCu2,-0.259995057
25458,Cu(IO3)2,-0.834355183
25459,SrCu5,-0.066463935
25460,CuN3,0.29646049
25461,Zr3(Si3Cu2)2,-0.521336833
25462,YCu5,-0.185082188
25463,K5CuSb2,-0.368584411
25464,Cu2P7,-0.105261609
25465,CuPtF6,-1.737420033
25466,Tl2CuI3,-0.497070164
25467,K2(CuTe)5,-0.358901969
25468,K4Cu8Te11,-0.358384137
25469,Ta7Cu3O19,-2.904621069
25470,Nd(SiCu)2,-0.592498603
25471,Cu(PtS2)2,-0.709635926
25472,Si(CuP2)4,-0.133067027
25473,Dy(SiCu)2,-0.595051084
25474,V4Cu3S8,-1.069324916
25475,GaCuI4,-0.414112438
25476,CuMo3I7,-0.354347993
25477,CuSe3I,-0.093976436
25478,Cu3SbSe3,-0.131732668
25479,K2Cu2Te5,-0.413847562
25480,ZrCu2Te3,-0.508714276
25481,CuNi2Sb,-0.093920312
25482,U3Cu2Sb3,-0.113628649
25483,HoInCu,-0.42324144
25484,HoCuP2,-0.87177473
25485,UCuP2,-0.644348737
25486,DyCu5,-0.188570285
25487,ErCu5,-0.196271792
25488,SrGaCu2,-0.255750256
25489,Hf2Cu,-0.161947257
25490,HfCuHg2,0.141675361
25491,ZrCuHg2,0.04629128
25492,HoCu2,-0.275654355
25493,HoCu5,-0.189508797
25494,HoInCu2,-0.32935293
25495,MgInCu4,-0.104974221
25496,LaCu4,-0.161340749
25497,LaCu6,-0.13486656
25498,CuNi2Sn,-0.132384885
25499,ZnCu2Ni,-0.122745892
25500,Cu4Pd,-0.07253357
25501,CuSnRh2,-0.356564958
25502,Cu11Sb3,0.059947619
25503,Cu10Sn3,0.012993103
25504,Ti2Cu3,-0.076157231
25505,TmCu5,-0.198769813
25506,ZrCu5,-0.116594757
25507,PrCu6,-0.12151383
25508,SmCu6,-0.1468077
25509,Mg2Ga5Cu6,-0.185165207
25510,CuTe2I,-0.118438502
25511,Li13(Ga7Cu2)3,-0.281144863
25512,Tm2Cu2O5,-2.652909663
25513,Cu8O,-0.101078083
25514,Ho3(SiCu)4,-0.639413929
25515,Hf5CuSn3,-0.381008691
25516,CuSe2O5,-1.142097663
25517,Cu13Se8,-0.052532262
25518,Cu8O7,-0.825483429
25519,CuI4,0.130579742
25520,Y(SiCu)2,-0.595426142
25521,Nd2CuO4,-2.948662456
25522,Eu(SiCu)2,-0.456331313
25523,Mn2CuO4,-1.681993966
25524,Nd3Cu3Sb4,-0.771172445
25525,Tl4CuTe3,-0.052172525
25526,MgCuSb,-0.278255985
25527,Cu2O,-0.649568572
25528,TmCuSe2,-1.197165051
25529,Cu2P2O7,-2.036896915
25530,MgCu4Sn,-0.128663484
25531,KCuF3,-2.377057445
25532,FeCuPt2,-0.18080811
25533,SrCuO2,-2.081296538
25534,GaCuTe2,-0.282913167
25535,GaCuSe2,-0.242928448
25536,Cu3PS4,-0.604222129
25537,La(SiCu)2,-0.59293972
25538,Pr(SiCu)2,-0.58392275
25539,Cs2KZrOF5,-3.412165391
25540,TaCu3Se4,-0.517185598
25541,Ho(SiCu)2,-0.586944904
25542,CsTiNiOF5,-3.067365381
25543,Cs2RbZrOF5,-3.390826585
25544,Cs2ZrTlOF5,-3.195682058
25545,U3(CuGe)4,-0.17962694
25546,Cu2NiSn,0.041256415
25547,HoSiCu,-0.670233903
25548,K3(Cu4Se3)2,-0.460995974
25549,LaSiCu,-0.619083512
25550,CuSe,-0.127438182
25551,Y2MgCu2,-0.245679264
25552,Tm(SiCu)2,-0.567721551
25553,NaCu3Te2,-0.214498382
25554,NaCuF3,-2.316368942
25555,CsSbS6(O3F)6,-2.079573926
25556,Cu2WO4,-1.450783719
25557,Eu(CuSb)2,-0.452453369
25558,Ti2CuSb3,-0.301267969
25559,UCu5,0.112576971
25560,Mn3CuN,-0.181610833
25561,GdCuS2,-1.717568051
25562,GdCuSe2,-1.233155429
25563,MnCuO2,-1.549294729
25564,LaMg2Cu9,-0.16965358
25565,Cu4P2O9,-1.745132612
25566,Cu4Sn7S16,-0.738619166
25567,Y4Cu7O16,-2.05565076
25568,Ta24Cu13O72,-2.770256428
25569,Ta16(Cu3O16)3,-2.758444223
25570,Ta32Cu17O96,-2.777621988
25571,Li47Cu7N18,-0.428730395
25572,Ta2CuO6,-2.791876401
25573,DySiCu,-0.67213336
25574,CsTmP4(H2O3)6,-2.161984603
25575,CsTi3Si2P6O25,-3.021743817
25576,U3Cu2Se7,-0.90074494
25577,KCu3Te2,-0.325530731
25578,CsS2N(O2F)2,-1.940294325
25579,TiCu2Te3,-0.412451293
25580,TlCu5Se3,-0.147906225
25581,Cu9S5,-0.316312161
25582,Cs2MgH12(SO7)2,-1.849883129
25583,CsPH3O4F,-2.208077142
25584,UCu5Sn,0.035220609
25585,TbMg2Cu9,-0.183644398
25586,Cs2CuH12(SO7)2,-1.671569461
25587,CsScP2(HO4)2,-2.741281493
25588,CuMoF6,-2.405792726
25589,Cs3ZnI4NO3,-1.344387171
25590,Nd4Cu2O7,-3.032100857
25591,SiCuO3,-2.288825263
25592,Cs6Na2Nb6H36O37,-1.928139165
25593,CsKTeH6SO10,-1.752154681
25594,CsUGa(PO5)2,-2.960795105
25595,Cs4KLiFe2F12,-3.029016388
25596,Cs4NaHf3H2F19,-3.570444326
25597,Cu3WO6,-1.358952207
25598,Np(SiCu)2,-0.286620273
25599,CuP4I,-0.090291936
25600,Ga8Cu3Mo2,-0.181878883
25601,YbCu2,-0.297170768
25602,Er3(CuGe)4,-0.619631706
25603,TbMg4Cu,-0.127028959
25604,LaMg4Cu,-0.141047628
25605,Ga8Cu3W2,-0.104846309
25606,Y5Mg13Cu5,-0.166801409
25607,EuCu9Sn4,-0.144755217
25608,Tm3(CuGe)4,-0.612864811
25609,Cu5Sn4,-0.008844447
25610,K3Cu11Te16,-0.225599225
25611,Tl(CuTe)2,-0.155236018
25612,YbInCu4,-0.28702138
25613,YbCu9Sn4,-0.129872528
25614,RbCu2I3,-0.606987084
25615,K2CuF4,-2.552675682
25616,HfCuP,-0.068414748
25617,V2Ga8Cu3,-0.202217531
25618,Sm2Cu4Sn5,-0.257046712
25619,YMg4Cu,-0.133485482
25620,Y5Mg16Cu5,-0.149980379
25621,Tb3(CuSn)4,-0.517089415
25622,Cs2Np2PO4F7,-3.399155192
25623,CsK2Ho(PO4)2,-3.01164932
25624,Tm3(CuSn)4,-0.337134308
25625,La2InCu2,-0.347070343
25626,Eu(Cu2Sn)2,1.310041069
25627,CsPH3O3F,-2.010302625
25628,LuCu5,-0.20327824
25629,Zr3Cu,0.0383346
25630,Cu3Pd,-0.108794527
25631,Cs2YSi4O10F,-3.330020879
25632,Zr4CuP,-0.561067319
25633,MnCuSb,0.09864041
25634,Yb(SiCu)2,-0.473060252
25635,Th(SiCu)2,-0.576964788
25636,HfInCu2,-0.170288499
25637,CuP10,-0.048245009
25638,NdCu9Sn4,-0.147451764
25639,GdSiCu,-0.648409303
25640,Hf5CuPb3,-0.099318034
25641,CuN6,0.32681369
25642,GdCu,-0.194596703
25643,GdInCu2,-0.299117894
25644,Gd3(CuGe)4,-0.61198269
25645,Cs3Sb2N3(O3F2)3,-1.952490318
25646,Cs2PtS6(O3F)6,-2.06169625
25647,ZrInCu2,-0.220197905
25648,Cu7S4,-0.391480585
25649,Cu7Te4,0.098901096
25650,Cs4K2Si2CuO8,-2.29558334
25651,Cu7Hg6,0.35155349
25652,Yb4Cu2Sn5,-0.547754292
25653,TlCuIr,0.537398963
25654,ZnCuMo,0.9794703
25655,Cs2NiH12(SO7)2,-1.679915329
25656,GdCu5,-0.164273623
25657,InCuPt2,-0.364144435
25658,EuCu,-0.038575007
25659,DyIn3Cu2,-0.110186572
25660,CsK5Zn4Sn5S17,-1.178244222
25661,Cs3Li2Ga(MoO4)4,-2.266193154
25662,Lu6CuTe2,-0.598553177
25663,CsHS2(O3F)2,-2.156832514
25664,CuPt,-0.16822939
25665,CsKPt6(S3O14)2,-1.659423
25666,ReCuO4,-1.786468016