id,Composition,FormationEnergy
7505,LiB(S2O7)2,-2.0617552
7506,LiB(SO4)2,-2.247871188
7507,Na2Be4B4O11,-2.89711863
7508,Na3Zn(BO2)5,-2.638249051
7509,Na2ZnB6O11,-2.70207624
7510,Na5B(SO4)4,-2.296869105
7511,SrGe2(BO4)2,-2.681831857
7512,Rb5Li6(BO2)11,-2.704469335
7513,RbBe2B3O7,-2.907349394
7514,NaBe(BO2)3,-2.858564583
7515,RbMgBO3,-2.78291984
7516,SrMgB2O5,-3.137696129
7517,Sr3BeB6O13,-3.146428796
7518,Sr3Y2(BO3)4,-3.357600984
7519,Rb3Zn(BO2)5,-2.652915312
7520,Sr3Ge2(B3O8)2,-2.922196604
7521,SrBeB2O5,-3.143005007
7522,NaB(S2O7)2,-2.062970234
7523,NaB(SO4)2,-2.231578547
7524,Rb4B2S4O17,-2.368769465
7525,Rb2GeB4O9,-2.671568338
7526,Rb3B(SO4)3,-2.336664021
7527,Sr4Li2B12O23,-3.03497832
7528,YBe2B5O11,-3.109171262
7529,Rb4Ge3B6O17,-2.577304665
7530,Ca2BN2F,-2.094522377
7531,Sr2BN2F,-2.038786398
7532,LaB2Pd2C,-0.529154478
7533,TbCo2B2C,-0.43980842
7534,CeB2Pt2C,-0.628150382
7535,YB2Pd2C,-0.491290167
7536,ThNi2B2C,-0.494882199
7537,ThB2Pd2C,-0.51146248
7538,YCo2B2C,-0.438977745
7539,CeCo2B2C,-0.452072064
7540,UNi2B2C,-0.38329033
7541,UB2Rh2C,-0.434446275
7542,LaSc3(BO3)4,-3.488446056
7543,NaSr4(BN2)3,-1.232695263
7544,SrLiBO3,-3.013839925
7545,CeNi2B2C,-0.481230835
7546,CeB2Ir2C,-0.604398585
7547,BaTi(BO3)2,-3.238526483
7548,MgSn(BO3)2,-2.73127085
7549,Ba3Ti3(BO6)2,-3.357423885
7550,Li6Ho(BO3)3,-2.835763801
7551,Sr3La2(BO3)4,-3.390320365
7552,TbB2Rh2C,-0.598975385
7553,YB2Rh2C,-0.591516197
7554,PrCo2B2C,-0.336753939
7555,PrB2Pt2C,-0.611901445
7556,Sm3Si2BO10,-3.610386354
7557,Sr2Mg(BO3)2,-3.204224191
7558,CsB(CN)4,-0.165628873
7559,CuB(CN)4,0.059606662
7560,LiB(CN)4,-0.166572599
7561,RbB(CN)4,-0.153578947
7562,TlB(CN)4,0.062465961
7563,BaBOF3,-3.522031461
7564,Li3Pr2(BO3)3,-3.096580053
7565,Sr3Er2(BO3)4,-3.387864327
7566,Ba3Ho(BO3)3,-3.319822639
7567,Ba3Tm(BO3)3,-3.329278689
7568,Ba3Lu(BO3)3,-3.334165991
7569,CaSn(BO3)2,-2.853646547
7570,LaCd(BO2)5,-2.927314405
7571,SmCd(BO2)5,-2.909548846
7572,Li6Y(BO3)3,-2.828454931
7573,Zn4B6SeO12,-2.430225848
7574,Ba3Sc(BO3)3,-3.295812621
7575,K3Nb3(BO6)2,-2.892986374
7576,Li3Nd2(BO3)3,-3.1027676
7577,YbLi6(BO3)3,-2.684332711
7578,NdZn(BO2)5,-2.935439923
7579,TbZn(BO2)5,-2.943708832
7580,BaBPO5,-3.133083316
7581,YBC,-0.045750383
7582,Ce3Co29(Si2B5)2,-0.430969543
7583,Pr3Co29(Si2B5)2,-0.38376592
7584,Nd3Co29(Si2B5)2,-0.391604606
7585,Sm3Co29(Si2B5)2,-0.402790692
7586,Tb3Co29(Si2B5)2,-0.415601214
7587,Tm3Co29(Si2B5)2,-0.419629071
7588,Lu3Co29(Si2B5)2,-0.418873675
7589,CeSc3(BO3)4,-3.453820319
7590,Li6Gd(BO3)3,-2.818953959
7591,Na2BeB2O5,-2.74361538
7592,BS4N4F3,-1.080616028
7593,Sr3Y(BO3)3,-3.348110149
7594,K2B4O7,-2.790613617
7595,Lu2Cu(B2O5)2,-3.04988881
7596,TbCu(BO2)5,-2.818246184
7597,TmCu(BO2)5,-2.826088713
7598,Sr3Sc(BO3)3,-3.345888426
7599,BaLi(B3O5)3,-2.958935078
7600,Er2Cu(B2O5)2,-3.041361322
7601,BaNa(B3O5)3,-2.949741611
7602,Ho2Cu(B2O5)2,-3.037923989
7603,SrLi(B3O5)3,-2.943820464
7604,Tm2Cu(B2O5)2,-3.048198899
7605,LuCu(BO2)5,-2.826301901
7606,PrSc3(BO3)4,-3.470154732
7607,Ba2Co(BO2)6,-2.88404095
7608,NdFe3(BO3)4,-2.660690593
7609,TbFe3(BO3)4,-2.668423413
7610,Ba2Mn(BO2)6,-2.968591114
7611,LiMnBO3,-2.527353438
7612,HoCo(BO2)5,-2.895959639
7613,YCo(BO2)5,-2.890015544
7614,LaCo(BO2)5,-2.90718732
7615,SmCo(BO2)5,-2.893859662
7616,NdCo(BO2)5,-2.890789092
7617,NdNi(BO2)5,-2.835504167
7618,Ho2Ni(B2O5)2,-3.06870202
7619,GdB2Rh2C,-0.591603881
7620,LaGeBO5,-3.021797794
7621,Sc2VB2Ir5,-0.756040985
7622,GdNi2B2C,-0.492288875
7623,LaNiBN,-1.051104027
7624,EuNi2B2C,-0.358721631
7625,Ce3Ni2B2N3,-1.23743467
7626,BPPbO5,-2.565988723
7627,CeZn(BO2)5,-2.910938049
7628,Er3Co29(Si2B5)2,-0.420031006
7629,Sc2SiB2Ir5,-0.852216105
7630,CeSiBO5,-3.372076107
7631,Mg2SiB2Ir5,-0.584447993
7632,Sc2FeB2Ir5,-0.705208245
7633,Mg3B7ClO13,-2.934410634
7634,Li10B14Cl2O25,-2.756550956
7635,Sr2BN2Cl,-1.715096479
7636,Zn3B7ClO13,-2.577071858
7637,K3B6BrO10,-2.726952979
7638,B5Pb2BrO9,-2.520564556
7639,Ca2BN2Cl,-1.757765701
7640,LiB(HO)4,-1.933479618
7641,CaB8H4O15,-2.638459983
7642,CsB5(H2O3)4,-2.18742094
7643,MgBHO3,-2.640496257
7644,KNa(BH4)2,-0.457788851
7645,NaB(H4O)2,-0.887771623
7646,Be2BHO4,-2.754771683
7647,CaB2H10O9,-1.94110335
7648,BH3NF3,-2.018569157
7649,K3B12H12I,-0.511396763
7650,Rb3B12H12I,-0.52173161
7651,Ca2BHN2,-1.193988896
7652,MgB3H15O13,-1.844606958
7653,LiB2H3O5,-2.226026184
7654,Rb3B12H12Br,-0.542551892
7655,Rb3B12H12Cl,-0.573780975
7656,Cs3B12H12Cl,-0.589598765
7657,LaFe3(BO3)4,-2.674738755
7658,MnSn(BO3)2,-2.516544612
7659,Co3B7ClO13,-2.473639306
7660,Co3B7IO13,-2.369238069
7661,CrBPbO4,-2.350880194
7662,FeBPbO4,-2.172453852
7663,MnBPbO4,-2.231837906
7664,Cr3B7BrO13,-2.607076261
7665,FeNi2BO5,-1.76980056
7666,B9H11N4,-0.20891979
7667,Mn3B7IO13,-2.602503379
7668,Y(CoB)2,-0.558968205
7669,Ca3(BO3)2,-3.304458633
7670,NaBO2,-2.627721769
7671,BNF8,-1.808001034
7672,Mg3(BO3)2,-3.052895528
7673,CsB(CF4)2,-2.298510526
7674,Mg2GeB2Rh5,-0.651036931
7675,GaBPbO4,-2.316169639
7676,K3B12H12Br,-0.532052821
7677,FeCoBO4,-2.084223546
7678,NaB5H10O13,-2.092185547
7679,MgB4(H9O8)2,-1.865373435
7680,Ni3B7IO13,-2.285883296
7681,NdGeBO5,-2.990999664
7682,EuCd(BO2)5,-2.787725231
7683,GaNi2BO5,-1.886389935
7684,GdNi(BO2)5,-2.832729702
7685,Rb2Hg(BSe)9,-0.436152804
7686,Sc2CrB2Rh5,-0.686710162
7687,Sc2MnB2Rh5,-0.75631634
7688,Sc2FeB2Rh5,-0.725485903
7689,Sc2GaB2Rh5,-0.897164151
7690,RbZn4(BO3)3,-2.339024596
7691,Na3Ca(BO2)5,-2.829327073
7692,Cs3B12H12Br,-0.558164996
7693,B4CCl6O,-1.04073876
7694,LiGeBO4,-2.30299036
7695,Ba2Ca(BO3)2,-3.238208633
7696,BaCuB2O5,-2.598718344
7697,Eu2B5ClO9,-3.037066363
7698,NaLiB4O7,-2.795922238
7699,B2Pb6SO12,-2.02794625
7700,B4COF6,-2.195927361
7701,Ba4B2N4O,-1.473292781
7702,Sr4Li(BO3)3,-3.157499452
7703,Be2BO3F,-3.197279557
7704,SrGaBO4,-2.916269903
7705,Ca2B5BrO9,-2.990937974
7706,BaLiBS3,-1.616147341
7707,Ho2Cu(BO2)8,-2.960701015
7708,NaCa4(BO3)3,-3.163418297
7709,Ca2BClO3,-3.224210519
7710,CaBeB2O5,-3.135174406
7711,KSr4(BO3)3,-3.141627669
7712,Ba3BPO7,-3.224653174
7713,Mg3B(OF)3,-3.443054499
7714,Ti2Cu9(B3O11)2,-2.033205446
7715,Cu3B7BrO13,-2.263142304
7716,Gd2B(OF)3,-3.891038426
7717,Na2Tl2B10O17,-2.672897217
7718,Mg3B(HO2)3,-2.480370507
7719,CaB2(H6O5)2,-1.870319122
7720,SrBNO,-2.25393428
7721,CuB2(PbO3)2,-2.048827136
7722,NaSiBO4,-2.923158792
7723,Pr7BP2O17,-3.578869176
7724,KCa4(BO3)3,-3.173856019
7725,BaBe2(BO3)2,-3.135905008
7726,CsLi5(BO3)2,-2.513168143
7727,Na2Er2B2O7,-3.195997214
7728,KTa(BO3)2,-3.021874922
7729,Sr5B3ClO9,-3.23682287
7730,BN(OF2)2,-2.164306272
7731,BaSi2(BO4)2,-3.213596564
7732,NaScB2O5,-3.11239447
7733,LiY6B3O14,-3.592092844
7734,K3Y(BO3)2,-2.852955402
7735,Ba2B5ClO9,-3.068222789
7736,Zn8B3H3O14,-2.011177436
7737,ZnBi2B2O7,-2.222927058
7738,Yb5Li2B3O13,-2.840821841
7739,Li6Cu(B2O5)2,-2.477406832
7740,Li3Ga(BO3)2,-2.620525336
7741,Ba3In(BO2)9,-2.972123542
7742,Na3Y(BO3)2,-2.850789178
7743,SrGa2B2O7,-2.784071118
7744,Sr2Sc2B4O11,-3.355481429
7745,Na2BHO3,-2.224949447
7746,LiUBO5,-3.191817998
7747,LiB(CO2)4,-1.845445935
7748,Rb3Y2(BO3)3,-3.039571643
7749,KSrB5O9,-2.974562495
7750,Cs2Ga2B2O7,-2.535576812
7751,RbBe4(BO3)3,-2.974226377
7752,PrB2ClO4,-3.103750528
7753,KGe2BO6,-2.374886314
7754,Sr2Be2B2O7,-3.187007229
7755,CeB2ClO4,-3.059368455
7756,LiSi2BO6,-3.076864166
7757,BiBPbO4,-2.112114779
7758,NaSrBO3,-2.900845672
7759,Li3In(BO3)2,-2.545320126
7760,Na3B6PO13,-2.789612441
7761,RbNb(BO3)2,-2.909121553
7762,GdMg(BO2)5,-3.109522825
7763,CsBa(BO2)3,-2.931410233
7764,Er2B2Cl2O5,-3.280237724
7765,Li3Sc(BO3)2,-2.963097976
7766,B5Pb2ClO9,-2.578526142
7767,Ba5B4(O5F)2,-3.294572679
7768,Sr2B5ClO9,-3.0856678
7769,Zn3BPO7,-2.3266574
7770,CaBi2B2O7,-2.527657425
7771,MgUB2O7,-3.222822914
7772,KBaB5O9,-2.963916733
7773,Li4Ca(BO3)2,-2.790632015
7774,K2LiBO3,-2.363440269
7775,NaUBO5,-3.170098143
7776,LaMg(BO2)5,-3.130821071
7777,Na5B2P3O13,-2.704755978
7778,CaGaBO4,-2.924633611
7779,BCl(OF2)2,-2.04009417
7780,BaLi(BS2)3,-1.288718798
7781,Dy2Cu(BO2)8,-2.960162573
7782,SrLiBS3,-1.59092631
7783,BaZn2(BO3)2,-2.620332952
7784,Ba3Sc(BO2)9,-3.131508029
7785,Ce3Si2BO10,-3.509869862
7786,SrBPO5,-3.139357801
7787,LiB6O9F,-2.879509495
7788,SrLi(BS2)3,-1.269479853
7789,K2Na(B3O5)3,-2.823871956
7790,SrBi2B2O7,-2.513837607
7791,Na4Li5(BO3)3,-2.449759999
7792,SrCu2(BO3)2,-2.289633861
7793,BH9(CO)3,-0.848697608
7794,Na3B6NO13,-2.516729759
7795,K3BSb4O13,-2.140129446
7796,KLi2BO3,-2.474080862
7797,Ba2Zn(BO2)6,-2.936959463
7798,Ba2Sc2B4O11,-3.332486303
7799,BiB2O4F,-2.635795826
7800,Cu2BH5O6,-1.478845112
7801,CsGeB3O7,-2.665230889
7802,Na3Nd(BO3)2,-2.820106639
7803,Eu2B5BrO9,-2.971514492
7804,Sm7BP2O17,-3.631384015
7805,K2B6H2O11,-2.629025981
7806,SrBe2(BO3)2,-3.131144135
7807,KB(CO2)4,-1.87724328
7808,NbTl(BO3)2,-2.700653596
7809,Ba3Y(BO2)9,-3.144100868
7810,Ba2Zn(BO3)2,-2.918076991
7811,Ba2Cu(BO3)2,-2.755166047
7812,BaBiBO4,-2.626247763
7813,CsLi2BS3,-1.370858743
7814,CdB2XeF10,-2.541493854
7815,BaZr(BO3)2,-3.34960574
7816,SrBi2(B2O5)2,-2.659559031
7817,LaB2ClO4,-3.154875106
7818,Cs2Na2B10O17,-2.804222834
7819,K3Sm(BO3)2,-2.834931528
7820,NaB(CO2)4,-1.848057328
7821,Cu5Bi2(B2O7)2,-1.832975205
7822,Li3Gd(BO3)2,-2.970837972
7823,KBCF6,-2.626900663
7824,Na3B(PO4)2,-2.70001792
7825,Tb2Cu(BO2)8,-2.958794786
7826,Rb2Ga2B2O7,-2.538012464
7827,K2Ge3(BO5)2,-2.420660144
7828,Mg5B3O9F,-3.128254047
7829,CdCu2(BO3)2,-1.875036826
7830,Na3La2(BO3)3,-3.042109578
7831,Cu3B4Pb2O11,-2.01408661
7832,NaLi2BO3,-2.482382657
7833,Sr5B3BrO9,-3.164673121
7834,Na3B5SO8,-2.563657935
7835,Sr2Cu(BO3)2,-2.772546038
7836,Zn2B2PbO6,-2.268059827
7837,BaBi2(B2O5)2,-2.646351715
7838,CaLa2B10O19,-3.163247862
7839,NaSr4(BO3)3,-3.120533843
7840,Sr5B3O9F,-3.341539934
7841,La6B(NO2)3,-3.026209098
7842,B3Pb6ClO10,-2.074791321
7843,BaGa2B2O7,-2.777124902
7844,CaB3H5O8,-2.328435624
7845,Na3Sc2(BO3)3,-3.035369821
7846,NdGa3(BO3)4,-2.789293591
7847,BTe3(OF5)3,-2.364560052
7848,LiCaBO3,-3.026026777
7849,Ba3Lu(BO2)9,-3.154294949
7850,Ba8B5N10F,-1.377939756
7851,NaSrB5O9,-2.965252023
7852,K2Ga2B2O7,-2.543888563
7853,NaMgBO3,-2.769735267
7854,Nd3BWO9,-3.340246287
7855,Cr2B(PO4)3,-2.66420676
7856,Gd3BWO9,-3.344244616
7857,CaMnB2O5,-2.897417933
7858,HfNi5(BO5)2,-2.000134531
7859,Ni5Sn(BO5)2,-1.707596509
7860,Pr3BWO9,-3.326438909
7861,Pr2B2MoO9,-3.086062187
7862,Mn3B7ClO13,-2.68154247
7863,Eu3BWO9,-2.925078201
7864,Na3VB6O13,-2.710628255
7865,Sm3BWO9,-3.362026787
7866,Fe3B7IO13,-2.37008398
7867,Cr3B7ClO13,-2.647502883
7868,LaBMoO6,-2.898488713
7869,Cr3B7IO13,-2.572803829
7870,Fe3B7ClO13,-2.586440425
7871,Ni3B7ClO13,-2.359251561
7872,SmB2Rh2C,-0.594720069
7873,Mn3B7BrO13,-2.62785612
7874,Ni3B7BrO13,-2.316868333
7875,BP(IBr)3,-0.321126604
7876,Y3Ni4B4C3,-0.512809327
7877,HgB2(CN)8,0.204366193
7878,Cs3Zr7BCl20,-2.233762033
7879,K2NaBP2,-0.399417072
7880,HoB2Rh2C,-0.590541069
7881,BH8CN,-0.36580396
7882,LaNi2B2C,-0.444297523
7883,Ba2Zr6BCl17,-2.31077772
7884,CuB2(CN)8,0.186262533
7885,Ba2BN2Cl,-1.637059013
7886,PrB2Rh2C,-0.573874317
7887,La3B(CBr)2,-1.017980509
7888,NdB2Rh2C,-0.583905356
7889,ZnB2(CN)8,0.073317586
7890,BP2N2Cl7,-1.118236118
7891,Sr2BIN2,-1.431457065
7892,Ca9B2(CCl2)4,-1.57300215
7893,Ce6B2(CBr)3,-0.832366136
7894,Mg8B5IN10,-1.124183676
7895,DyB2Rh2C,-0.596497679
7896,La3BCCl3,-1.675535626
7897,CsZr6BI14,-1.056564047
7898,NaB(CN)4,-0.130436555
7899,KB(CN)4,-0.144861056
7900,V2B(PO4)3,-2.732830437
7901,Y16B4C8I19,-1.065077331
7902,LiGd6B3O14,-3.54907603
7903,UBC,-0.445351553
7904,Mg2BN2Cl,-1.408750406
7905,Na2Gd2B2O7,-3.146483774
7906,GdFe3(BO3)4,-2.65829186
7907,Y(BRh)4,-0.582514335
7908,LaB2Ir2C,-0.565884973
7909,B5H15C3N,-0.259495037
7910,SrSi2(BO4)2,-3.224220153
7911,Sr6B(PO4)5,-3.268631844
7912,Li2B4H4O9,-2.361879858
7913,LiB3H18N5,-0.494572102
7914,KB3(HO3)2,-2.453875242
7915,Ba2Li(BO2)5,-3.045898513
7916,Ca4LaB3O10,-3.395948104
7917,NbNi2BO6,-2.191950793
7918,La3Co29(Si2B5)2,-0.389096008
7919,TbNi2B2C,-0.511707511
7920,ErNi2B2C,-0.518718974
7921,NdNi2B2C,-0.451443346
7922,La3Ni2B2N3,-1.153775433
7923,LiCdBO3,-2.324707217
7924,YNiBC,-0.514764251
7925,YbBa3(BO3)3,-3.145399385
7926,PrNi2B2C,-0.432514705
7927,La3BWO9,-3.401218999
7928,LuNiBC,-0.567493118
7929,CeB2Rh2C,-0.61826815
7930,CoCu2(BO3)2,-1.838569353
7931,DyNi2B2C,-0.515337707
7932,Cs2K2B10O17,-2.814935977
7933,La9B3C6Br5,-0.939065999
7934,Sr3Nd2(BO3)4,-3.363669462
7935,CsNb(BO3)2,-2.917675016
7936,LaSiBO5,-3.455975827
7937,YbNi2B2C,-0.444969735
7938,Ba3Y(BO3)3,-3.308738916
7939,Na2Y2B2O7,-3.170399246
7940,Ca4SmB3O10,-3.391595794
7941,CaSi2(BO4)2,-3.210888118
7942,K3Y3(BO3)4,-3.173169353
7943,CeBMoO6,-2.820190244
7944,Cs3B12H12I,-0.536751794
7945,Ba3La2(BO3)4,-3.32719059
7946,Tb3BWO9,-3.395420787
7947,Dy3BWO9,-3.399221895
7948,BaLiBO3,-2.970677082
7949,YbCo(BO2)5,-2.746375502
7950,Cu3B7IO13,-2.240299562
7951,Zn10Fe(B4Rh9)2,-0.360986383
7952,UNi7(BO4)4,-2.022814345
7953,ZrFe12Si2B,0.203881152
7954,Co3B7BrO13,-2.429861917
7955,LuNi2B2C,-0.516057169
7956,Ba4Na(BO3)3,-3.065667273
7957,YNi2B2C,-0.508456989
7958,Ba3B(PO4)3,-3.192710629
7959,CaMgB2O5,-3.146416266
7960,Zn3B7BrO13,-1.863308708
7961,Ca5B3O9F,-3.396168954
7962,HoNi2B2C,-0.517267517
7963,KLiB4O7,-2.812115957
7964,KZn4(BO3)3,-2.337247922
7965,BaNaBO3,-2.868338675
7966,CaBPO5,-3.104077628
7967,Gd3B2(O2F)3,-3.740132987
7968,HgB(CN)4,0.187273801
7969,Ca3La3(BO3)5,-3.442723901
7970,La4B2CI5,-1.171992526
7971,TmNi2B2C,-0.52001064
7972,Na3La9B8O27,-3.40636406
7973,Na3Sr(BO2)5,-2.82484073
7974,RbLiB4O7,-2.8090404
7975,LaB2Rh2C,-0.596477958
7976,LiCa4(BN2)3,-1.328379911
7977,La9B3C6I5,-0.789556724
7978,Y21B7(C7I9)2,-0.907597953
7979,Ce9B3C6Br5,-0.834409921
7980,Gd3Co29(Si2B5)2,-0.401504655
7981,Sr3Pr2(BO3)4,-3.357915936
7982,Ce3B2(ClO2)3,-3.172932086
7983,Ce6Ge9(BO15)2,-2.741506586
7984,Na3Mg(BO2)5,-2.776119844
7985,Ti9Fe2(B4Ru9)2,-0.542583014
7986,Sm(BC)2,-0.42873825
7987,Ca4GdB3O10,-3.392409202
7988,BH5CN2,-0.376777048
7989,BH2CO,-0.448226432
7990,B3H7CO,-0.267280758
7991,BH3OF4,-2.352780561
7992,NaSi3BO8,-3.089230654
7993,CaB2(H2O3)2,-2.319937357
7994,BH4O2F3,-2.141893221
7995,NaB(H4O3)2,-1.375207691
7996,BH3NF4,-2.068431007
7997,Rb2B10H6O19,-2.501176669
7998,ErB2Rh2C,-0.583202992
7999,LiB(HO2)2,-1.900254398
8000,Sr2B5H2O11,-2.733638168
8001,Ca2B3(HO)13,-2.041718573
8002,Li2B12H26O7,-0.826594966
8003,CaB12(H3O2)4,-0.498321653
8004,B5H12NO12,-1.91652245
8005,Ba5B20(H2O19)2,-2.819201918
8006,Na2Co2(B4O7)3,-2.672783746
8007,Na2Ni2(B4O7)3,-2.631590297
8008,K2B10H13O2,-0.572949426
8009,NiB18(H11C2)2,-0.1121364
8010,K2B10H9O,-0.270978332
8011,Ca2B8H2O15,-2.861480119
8012,NaB2HO4,-2.497618153
8013,Mg3Mn3(BO5)2,-2.653350899
8014,BH5(NF2)2,-1.677601137
8015,KB5(H2O3)4,-2.185816628
8016,NaB2H5O6,-2.019871822
8017,Na2B3HO6,-2.560527843
8018,Na2B4H8O11,-2.105237098
8019,MgB2H6O7,-2.076101511
8020,BH2OF3,-2.447507651
8021,Li3B5(HO5)2,-2.599572412
8022,Ca3B6(H4O5)4,-2.198751939
8023,Na2B4H20O17,-1.787944753
8024,RbB6H8O7,-1.445660295
8025,NaB(HO)4,-1.886722017
8026,K2B5H5O11,-2.341447828
8027,CsB6H8O7,-1.425968699
8028,B5H2Pb2O11,-2.304872378
8029,KB3(H3O4)2,-1.643419215
8030,BaB2H10O9,-1.580068411
8031,Na3B5H4O11,-2.384557801
8032,Na2B5H3O10,-2.472858884
8033,BH4NF4,-2.045395301
8034,Na2B5H5O12,-2.124588927
8035,CaB3H7O9,-2.191019221
8036,Na3B3H2O7,-2.394805937
8037,Na2B5H5O11,-2.325256726
8038,NaB3H4O7,-2.2440209
8039,BaB2(HO)8,-1.406225046
8040,BH2NCl2,-1.144788419
8041,ZnB8(H2N)4,0.827848326
8042,RbB5(H2O3)4,-1.152916496
8043,NaB5(H2O5)2,-2.410280881
8044,B5H8NO12,-1.771274763
8045,SrB6(H4O7)2,-2.331942523
8046,NaBH8O7,-1.595536181
8047,CaB2(HO)8,-1.999337878
8048,K2B4H8O11,-2.121629699
8049,B5H4NO10,-1.88863042
8050,CaB3H3O7,-2.541419057
8051,Na3B5(HO5)2,-2.535742746
8052,CaB3H13O12,-1.934011025
8053,Mg3B11(H3O8)3,-2.23274897
8054,LiB5H2O9,-2.602749614
8055,NiB6(H8O9)2,-1.906218518
8056,Ca2SiB2O7,-3.263508854
8057,LiCuBO3,-2.052262203
8058,Li2Ti(BO3)2,-2.876585172
8059,LiBiB2O5,-2.425113348
8060,LiBi(BO3)2,-2.205509814
8061,Li2Sn(BO3)2,-2.484773082
8062,Li4Sn(BO3)2,-2.406889614
8063,Lu4(B2O5)3,-3.344901028
8064,Li5Zn4(BO3)4,-2.302805295
8065,LiBSbO3,-2.238488533
8066,LiZnBO3,-2.386817777
8067,Er2B4O9,-3.303911768
8068,CaB5H3O10,-2.621910208
8069,BaB2H2O5,-2.597501172
8070,B5PH4Cl,-0.347959259
8071,Dy3Co29(Si2B5)2,-0.407285314
8072,BPH9C2,-0.2816849
8073,CsB10H13C,-0.300697215
8074,La26B8O51,-3.731852334
8075,Bi25BO39,-1.612681863
8076,Yb(BO2)3,-2.89109455
8077,Li2FeBO4,-2.362107926
8078,Li3FeB4O9,-2.621491851
8079,Li2CoBO4,-2.216413424
8080,LiFeB2O5,-2.472885953
8081,LiNiBO3,-2.074918283
8082,Li3Fe(BO2)5,-2.641733105
8083,Li3CrB4O9,-2.630721597
8084,Li3Fe8(BO3)8,-2.342184298
8085,LiNb(BO3)2,-2.815063689
8086,LiB2SbO6,-2.41783311
8087,LiFe2(BO3)2,-2.371035717
8088,LiMn2(BO3)2,-2.431544003
8089,Li2Ni3(BO3)3,-1.975860087
8090,LiCo2(BO3)2,-2.142568705
8091,LiFe4(BO3)4,-2.325544047
8092,Na3GaB4O9,-2.656729683
8093,CoBO3,-1.994028992
8094,LiCoBO3,-2.278212579
8095,Li5Mn6(BO3)6,-2.491389066
8096,Li2BiBO4,-2.243795459
8097,BiB2O5,-2.26567703
8098,Li2Bi(BO3)2,-2.348429008
8099,Li5Bi2(BO3)4,-2.414468899
8100,LiBi2BO5,-2.054352522
8101,Li3BiB4O9,-2.572337128
8102,Li3Bi(BO3)2,-2.43286278
8103,Li2Bi5B3O13,-2.14875022
8104,Li7Bi(BO4)2,-2.309680455
8105,Li2Bi(BO2)5,-2.625835315
8106,Li2BiBO5,-2.084169261
8107,Li2Bi2B2O7,-2.261715112
8108,LiBi4B3O11,-2.174261632
8109,Li3Bi2(BO3)3,-2.395303004
8110,Bi6B10O21,-2.318371295
8111,Li8B2O7,-2.412040505
8112,Bi4(B2O5)3,-2.418713034
8113,Bi3B7O12,-2.384192675
8114,Bi5BO10,-1.712914686
8115,Bi4(BO4)3,-1.979808632
8116,Bi12BO20,-1.690742291
8117,Li2B5SbO10,-2.630179204
8118,RbB3Te2O9,-2.201055463
8119,Li6B3SbO9,-2.474531664
8120,Li6Ti(BO3)3,-2.651631114
8121,Li2NiBO4,-1.984754969
8122,VBO4,-2.441551726
8123,Li3Co(BO3)2,-2.386553574
8124,Li3CrBO5,-2.363120463
8125,Li3Ti(BO3)2,-2.765468921
8126,Li3Co(BO2)5,-2.588790032
8127,Li3CoBO4,-2.203703126
8128,Li6Bi(BO3)3,-2.502328681
8129,Li3Sn(BO3)2,-2.433749782
8130,Li3B2SbO6,-2.404916354
8131,V3BO6,-2.626198672
8132,V5BO9,-2.539677338
8133,Li2BSbO4,-2.314590216
8134,Mg3Mn5(BO4)4,-2.603876698
8135,Li6V(BO3)3,-2.572064155
8136,Li3Ni(BO3)2,-2.254082804
8137,LiB2SbO5,-2.429678526
8138,Li2BSeO4,-2.133010138
8139,Li3Mn(BO3)2,-2.504272001
8140,MnFeBO4,-2.219545088
8141,Li3FeBO5,-2.185065048
8142,Li3Ni(BO2)5,-2.544074417
8143,Li5Cu4(BO3)4,-2.039424982
8144,Li2MnBO4,-2.351223145
8145,Li3Co4(BO3)4,-2.209694885
8146,V5(BO5)2,-2.572702896
8147,Er4(B2O5)3,-3.394575249
8148,Li6Fe(BO3)3,-2.473691157
8149,Li6Mn(BO3)3,-2.504012133
8150,Li6Cr(BO3)3,-2.532884037
8151,Na3Fe(BO3)2,-2.370849617
8152,La4(B2O5)3,-3.385364682
8153,Lu2B4O9,-3.297892039
8154,La3Si2BO10,-3.644140415
8155,LiCoB2O5,-2.345222447
8156,Na3Ni(BO3)2,-2.109156986
8157,Na3Cr(BO3)2,-2.462410565
8158,Na3V(BO3)2,-2.489020671
8159,Na3Bi(BO3)2,-2.31528123
8160,NaNiBO3,-2.007198792
8161,Na(BH)5,-0.315728441
8162,Li4Ni(BO3)2,-2.329283641
8163,LiFeBO4,-2.093870541
8164,Li3BiB8O15,-2.668919446
8165,Li3Mn4(BO3)4,-2.487712622
8166,LiBi6B3O14,-2.082051252
8167,B3H3SeO9,-1.939086059
8168,Li4V(BO3)2,-2.538677855
8169,Nb(BO2)5,-2.805382701
8170,La3B5O12,-3.308136726
8171,CrB3(HO3)3,-2.076049264
8172,Rb(BH)5,-0.360151761
8173,Li2Mn3(BO3)3,-2.439449992
8174,LiMn3(BO3)3,-2.415818275
8175,Ca5BC4Cl3,-1.073368161
8176,Mg2BO3F,-3.238535028
8177,SrSn(BO3)2,-2.849255858
8178,EuB4O7,-2.995768678
8179,KNa2BO3,-2.281394114
8180,Ba2Ca(BO2)6,-3.128088783
8181,Li5Fe8(BO3)8,-2.377956737
8182,Li5Mn8(BO3)8,-2.456107192
8183,Li3Fe4(BO3)4,-2.389204542
8184,Li7Fe8(BO3)8,-2.397794255
8185,LiFe8(BO3)8,-2.315875421
8186,Li7Mn8(BO3)8,-2.499508573
8187,LiMn4(BO3)4,-2.395307107
8188,NbBO4,-2.970484686
8189,PrB2HF10,-3.371785355
8190,BaBiBS4,-1.316040703
8191,Mg2ZnB2Ir5,-0.434408301
8192,BaBSbS4,-1.306361548
8193,CaB2(H7N)2,-0.523654765
8194,Ba3In(BO3)3,-2.987453307
8195,KSc(BH4)4,-0.389917157
8196,NaSc(BH4)4,-0.373338905
8197,K8Zr6BBr20,-1.580835187
8198,BP4(SBr)3,-0.475987583
8199,KB6(HO)6,-1.300326176
8200,Ca2SiB5O14,-2.598604483
8201,CsB2H5O6,-2.035172466
8202,Li3V(BO3)2,-2.614754871
8203,CsNa2BO3,-2.251027022
8204,RbNa2BO3,-2.267596058
8205,LiSiBO4,-2.98739269
8206,K2Zr(BO3)2,-3.001881399
8207,LaB2Pt2C,-0.64534776
8208,SmNi2B2C,-0.479302905
8209,Ba2Mg(BO3)2,-3.143335946
8210,CsTa(BO3)2,-3.035962782
8211,Cs2Li3(BO2)5,-2.708710409