id,Composition,FormationEnergy
18706,CeFeSi,-0.610360487
18707,CeIn5Rh,-0.450173797
18708,Ce2CoSi3,-0.7577004
18709,Ce2SbO2,-2.945143835
18710,Ce2InPt2,-1.043782989
18711,CeIn3,-0.41688439
18712,CeFe2,-0.083530095
18713,LiCeGe2,-0.610844582
18714,CeInIr,-0.693771994
18715,CeTl3,-0.229926102
18716,CeNiGe,-0.74763211
18717,CeCrGe3,-0.428752605
18718,CeInCu,-0.28862587
18719,Ce4Sb3,-0.90645086
18720,CeSiNi,-0.749241353
18721,CeFeGe3,-0.512091213
18722,Ce3Sn,-0.40434762
18723,Ce(Sn3Ru2)2,-0.353224388
18724,LiCeSn2,-0.490001176
18725,YbCeSe3,-1.745203086
18726,CeCuGe,-0.579814695
18727,CeDyS3,-2.451312272
18728,Li2CeSb2,-0.68301898
18729,CeSnPt,-0.991789134
18730,CeSnIr,-0.847119008
18731,CeZnSn,-0.504594967
18732,CePd3,-0.843015042
18733,Ce(CoGe)2,-0.581448184
18734,CeScS3,-2.363062126
18735,Ce2InGe2,-0.64891371
18736,Ce2S3,-2.416137976
18737,CeIn5Ir,-0.391964654
18738,CeOs2,-0.244704658
18739,Ce3In,-0.1981577
18740,CeGe2,-0.572719458
18741,Ce(MnGe)2,-0.454362287
18742,CePt2,-1.011381522
18743,CeSi,-0.65310562
18744,CeCoGe3,-0.57919337
18745,CeNiSn,-0.596373413
18746,CeSb,-0.85217124
18747,CeP,-1.151922169
18748,KCeGeSe4,-1.102459496
18749,CeNi,-0.318325677
18750,CePt,-1.090836582
18751,CeIn2Ir,-0.522652987
18752,CeCoGe,-0.577169975
18753,Ce(SnIr)2,-0.524050773
18754,CePRuO,-2.23801607
18755,CeMgGa,-0.362271681
18756,CeInPd,-0.737238181
18757,CeMnGe,-0.416703974
18758,Ce3Tl,-0.120262082
18759,CeMg2,0.018129253
18760,CeSiIr,-0.903219752
18761,Ce2Pd2Pb,-0.745807022
18762,CeIn2Pd,-0.576000904
18763,CeInNi,-0.466393254
18764,CeMgTl,-0.205495282
18765,NaCeP2O7,-3.06732531
18766,K2CeTa5O15,-3.362807069
18767,K2CeNb5O15,-3.096709927
18768,Ce3(InRu)2,-0.470282432
18769,K3Ce(PS4)2,-1.430003457
18770,Ce3(GeRh)2,-0.858686476
18771,CeGePd,-0.908839226
18772,Ce5Ge2Ru,-0.558986338
18773,Ce5Cu19P12,-0.531796124
18774,CeGe3Pd5,-0.699830973
18775,Ce5Sn4,-0.556934629
18776,CeCu6,-0.119540306
18777,Ce(SeO4)2,-1.864498377
18778,CeCrS3,-1.76006857
18779,Ce(FeGe)2,-0.40936751
18780,Ce(SiIr)2,-1.05040466
18781,Ce3Co4Sn13,-0.348241479
18782,Ce(SO4)2,-2.569161989
18783,Ce(NiSn)2,-0.43124924
18784,CeF3,-4.166968838
18785,CeTaO4,-3.644387651
18786,CeGa2,-0.59236175
18787,Ce2Co17,-0.077748061
18788,CePd5,-0.519389152
18789,CeMgCu2,-0.126978624
18790,CeSbRh,-0.99373026
18791,Ce(GeRu)2,-0.650678344
18792,KCeSe4,-1.139545474
18793,Ce3Te4,-1.393459994
18794,SrCeO3,-3.632602834
18795,Ce(SiPt)2,-1.108375279
18796,Ce2MgGe2,-0.650800255
18797,CeP2O7,-3.128951181
18798,CeNiSb2,-0.734698605
18799,CeZnSbO,-1.818260608
18800,Ce3(CuGe)4,-0.549822499
18801,Ce2Sb,-0.739111622
18802,CeCuSn,-0.46747641
18803,Ce2Ni2Sn,-0.50406562
18804,CeZrF7,-4.189902567
18805,CeSiCu,-0.563351878
18806,Ce2MgCu2,-0.105839558
18807,CrCl2,-1.326017267
18808,NaCl,-2.104797979
18809,CsCl,-2.217420177
18810,SbCl3,-1.313773417
18811,VCl2,-1.543170922
18812,EuCl2,-2.745037837
18813,ZnCl2,-1.537755729
18814,LaCl3,-2.854918627
18815,LiCl,-2.106838987
18816,PuCl3,-2.335498227
18817,CeClO,-3.397568183
18818,NpCl4,-2.053333117
18819,TlCl,-1.265491617
18820,ReCl3,-1.116699039
18821,SbCl5,-1.140537478
18822,NdCl3,-2.733562944
18823,Sc7Cl12,-2.145961691
18824,KCl,-2.254359827
18825,FeCl3,-1.054445119
18826,UCl3,-2.110410826
18827,PrCl3,-2.744019115
18828,ThCl4,-2.629606375
18829,UCl4,-2.158362629
18830,CoCl2,-0.930212034
18831,UCl6,-2.006076007
18832,Ta2Cl5,-1.710838848
18833,TiCl3,-2.02727742
18834,InCl,-1.126113279
18835,NpCl3,-2.166028853
18836,PbCl2,-1.546158529
18837,TbCl3,-2.707034274
18838,RbCl,-2.242800782
18839,Ce(IO3)4,-1.35205806
18840,CeHSe,-1.407972519
18841,Cd2H3ClO3,-1.440077038
18842,LiCe2HO3,-2.799093812
18843,CdP2(HO)4,-1.381802517
18844,CdH4NCl3,-1.079328623
18845,LiCd4Ge5HO15,-1.928696885
18846,CdCoH18N6Cl5,-0.832258618
18847,CeCrO3,-2.954899465
18848,K2Cr2Cd(H2O5)2,-1.746460712
18849,Cr2CdH14(NO2)4,-1.086018889
18850,CeN,-1.683666891
18851,CeMn2(GeO3)4,-2.42565085
18852,V2CdP2O9,-2.566540615
18853,Ce7O12,-3.925570437
18854,Si3Cl8,-1.550207846
18855,UCl5,-2.108908404
18856,PaCl4,-2.325616028
18857,TmCl2,-2.121692213
18858,ReCl4,-1.060668489
18859,NiCl2,-0.974215696
18860,PaCl5,-2.329534923
18861,ScCl,-1.721059504
18862,Sc7Cl10,-2.049552157
18863,Ce2SeF4,-3.730609689
18864,CrCl3,-1.560449556
18865,IrCl3,-0.926873681
18866,RhCl3,-1.064718535
18867,TcCl4,-1.144127536
18868,Ce(Re2Si)2,-0.461291507
18869,Nb3Cl7,-1.657531143
18870,TbCl,-1.758363312
18871,LaCl,-1.78735817
18872,CeCu2,-0.150035852
18873,TmCl3,-2.68946549
18874,In5Cl9,-1.354244955
18875,TiCl2,-1.787263394
18876,MnCl2,-1.480624793
18877,NdCl2,-2.297689877
18878,SiCl4,-1.721400154
18879,Ce3Sn7,-0.579863219
18880,DyCl3,-2.698558945
18881,In7Cl9,-1.242534534
18882,Ce8SbPd24,-0.805630742
18883,SiCl2,-1.37533441
18884,SmCl2,-2.264833763
18885,TaCl4,-1.776897522
18886,CeSi3N5,-1.413629251
18887,ClF,-0.876822103
18888,CeSiI,-1.036899983
18889,Ce(MnSi)2,-0.578357797
18890,Ce4Ge9Rh13,-0.84116317
18891,TaCl5,-1.838406801
18892,Nb3Cl8,-1.695493025
18893,Li2CeGe,-0.233665257
18894,CeSi2Ru3,-0.684057274
18895,GeCl4,-1.399842061
18896,TiCl4,-2.063889322
18897,CeSbTe,-1.134941352
18898,Ce3SiPd5,-0.821048323
18899,CeGa4Os,-0.468794805
18900,Ce10Ga5Cl4,-1.002193447
18901,Ce3Ga4Cl,-0.94044822
18902,Ce(FeSi)2,-0.655574604
18903,CeMg2Cu,0.138489668
18904,CeHg2,-0.36063778
18905,CeIr5,-0.33959633
18906,Ce(Ni2Sn)2,-0.107793811
18907,CeTlPd,-0.579951774
18908,NbCl4,-1.725326506
18909,CeSi4Ni9,-0.581491197
18910,CeSiRh2,-0.999676038
18911,CeIr3,-0.606268477
18912,PtCl3,-0.838344265
18913,Ce2Si3Rh,-0.891324451
18914,Ce7Ru3,-0.275772203
18915,Ce2Te4O11,-2.249032043
18916,CeGaNi,-0.620202635
18917,Ce2Se3,-1.819341756
18918,Ce5O9,-3.952381653
18919,Pr5Cl12,-2.494900332
18920,Ce2Te3,-1.369095922
18921,CeSi2Pt,-0.991191336
18922,Ce(NiGe)2,-0.664305248
18923,Sr(CeS2)2,-2.400682094
18924,Ce(SmS2)2,-2.396462434
18925,Ce(CoSi)2,-0.759851708
18926,CeGa3Pd2,-0.723817004
18927,CeOF,-4.013441066
18928,RbCeS2,-2.096893877
18929,Na2CeO3,-2.197294989
18930,CeNiGe2,-0.72058101
18931,CeMgSi2,-0.526970596
18932,Ce(SiRu)2,-0.885816914
18933,NaCeS2,-2.056829077
18934,Ce2Y2O7,-3.924806565
18935,CeThO4,-4.159174613
18936,Sr(CeSe2)2,-1.874218445
18937,Ce2SmS4,-2.402114186
18938,Ce(NdS2)2,-2.39870363
18939,NaCe5S8,-2.311540643
18940,Li2Ce2Ge3,-0.630221052
18941,KCe5S8,-2.299709647
18942,Na3CeF7,-3.521586636
18943,Ce(SiPd)2,-0.909090338
18944,Ce2Nd2O7,-3.806537784
18945,CeSbO3,-2.500760366
18946,CeZn5,-0.251294387
18947,NdTiCdSbO7,-2.79561335
18948,GdTiCdSbO7,-2.803953095
18949,Ce2SO2,-3.467958511
18950,Ce(SiRh)2,-1.063566386
18951,RbCeTe2,-1.340092713
18952,NaCeTiNbO6F,-3.368079867
18953,Ce(SiNi)2,-0.806165866
18954,Ce(TeO3)2,-2.309442761
18955,Ce(SiOs)2,-0.719415402
18956,Ce2TeO2,-3.122295685
18957,CeSF,-3.289435213
18958,Ce3(Si4Ni)2,-0.618297419
18959,KCeF4,-3.923431721
18960,Ce6P17Pd6,-0.834045736
18961,CeP5O14,-2.817969571
18962,RbCeH2S2O9,-2.385839043
18963,CeSiOs,-0.64129384
18964,CeTa3O9,-3.483068714
18965,CeGeRh,-0.912558509
18966,Ce2MgSi2,-0.587428992
18967,CeMnSi,-0.509689045
18968,CdPH6NO5,-1.569432238
18969,VCdCuO4,-1.750781781
18970,Ce2(WO4)3,-2.687179812
18971,Ce(PRh)2,-1.136313239
18972,Ce2Sc3Si4,-0.771733313
18973,CeTe2,-1.20876054
18974,CeH2,-0.601037359
18975,CeP3H8O7,-1.695039894
18976,Ce11O20,-3.956072553
18977,CeH14Cl3O7,-1.582212621
18978,Ce2Ni7P4,-0.868815584
18979,CePu4Co3,0.03366457
18980,Ce3Ni2Sn7,-0.539086787
18981,Ce3S2O3,-3.379366107
18982,Ce(GeIr)2,-0.776619618
18983,Ce3(SiNi3)2,-0.57522224
18984,CeSn2Rh,-0.690524436
18985,Ce5Pb3O,-1.028777641
18986,CeHSO5,-2.587641665
18987,KCeH2S2O9,-2.386167785
18988,Ce(IO3)3,-1.463669924
18989,Ce5Ge3,-0.59199312
18990,Ce3CuSnS7,-1.7740948
18991,CsCeCuS3,-1.751162275
18992,Ce6Y26O51,-3.953300148
18993,Ce10Y22O53,-3.948307472
18994,Sr25Cl52,-2.783402657
18995,Ce14Y18O55,-3.934710946
18996,Ti7Cl16,-1.921768489
18997,KCe(PO3)4,-2.907143667
18998,Ce(SeO3)2,-2.153679616
18999,Ce2Sn5,-0.566658353
19000,Ce2Fe12P7,-0.72039968
19001,Zr4Cd(PO4)6,-3.131718512
19002,Ce4Si2Se3O7,-3.032620422
19003,Ce3Si6N11,-1.453681848
19004,CeTmS3,-2.440830198
19005,Rb2Cd(PSe3)2,-0.608245543
19006,CeF4,-4.083155653
19007,Ce5Ge2Rh,-0.623817678
19008,Ce3Si2S8Cl,-1.877209255
19009,CeMo5O8,-1.922560084
19010,Ce5Co19,-0.144194179
19011,Ce5Ga3,-0.347950052
19012,Sc5Cl8,-2.142741246
19013,Ce2Zn17,-0.222984033
19014,Rb2Cd3H6S3O16,-1.855005378
19015,Ce2SiTeO4,-3.153064008
19016,Ce2SiSeO4,-3.248791703
19017,CeMnSbO,-1.734319817
19018,Ce4Co2Sn5,-0.516989382
19019,CePt5,-0.713903273
19020,Ce3CuSnSe7,-1.257096008
19021,CeNiSnH2,-0.5917624
19022,Ce3(CuSn)4,-0.438982655
19023,CeMg2Cu9,-0.149706315
19024,Ce3S3N,-2.254146932
19025,Ce(SiCu)2,-0.572469568
19026,Ce4Se3O4,-2.967131726
19027,KCdCu7Se2Cl9O8,-1.119054148
19028,K2CdP2O7,-2.545794964
19029,KCd3H8Cl7O4,-1.493230258
19030,K5NaCe2(SO4)6,-2.554328095
19031,Na2Cd(SiO3)2,-2.63973642
19032,Ce3Si2S8I,-1.760743784
19033,CeZr6(PO4)9,-3.257208365
19034,CeTl5Cu2(NO2)12,-0.93460249
19035,Ce10Si8O3,-1.387224142
19036,Na3Ce(PO4)2,-2.924250668
19037,ClF3,-1.1136085
19038,LiCdPO4,-2.459798813
19039,Rb2Ce(NO3)6,-1.488418555
19040,CeNbO4,-3.475921517
19041,K2Ce(Si2O5)3,-3.253997846
19042,Ce(GeRh)2,-0.857303972
19043,Cd2PO4F,-2.348926014
19044,Ce2SiS5,-1.917796836
19045,Ce3CuGeS7,-1.799607438
19046,Ce3SiCuS7,-1.888305885
19047,Ce3Ta(ClO2)3,-3.453615776
19048,K2Ce(NO3)6,-1.482926427
19049,Rb5CeCu2(NO2)12,-1.166442751
19050,Li2Cd(PO3)4,-2.590883376
19051,Ce2Ti2SiO9,-3.606050374
19052,Ce2Zr2O7,-3.824433689
19053,K2Ce(PO4)2,-3.033490107
19054,NaCe(PO3)4,-2.897508812
19055,CePS4,-1.473670186
19056,CdGaH14O7F5,-1.735899484
19057,CeCrS2O,-2.263869855
19058,Ce4Si2S3O7,-3.201435892
19059,Yb3CeS6,-2.091231709
19060,CeTl5Ni2(NO2)12,-0.949582251
19061,Tl4V5CdClO15,-2.04845839
19062,CdTeMoO6,-1.783854802
19063,CeP5,-0.511030483
19064,Ce2Fe17N3,-0.277054004
19065,Rb5CeNi2(NO2)12,-1.18514672
19066,Rb2Cr2Cd(H2O5)2,-1.740155717
19067,K4V5CdClO15,-2.35227355
19068,Ce2Ga12Ni,-0.383033997
19069,Ce3Se4,-1.839294566
19070,PtCl2,-0.722000174
19071,Ce9Sb16Cl3,-1.049128786
19072,Ce2Si4Pt7,-0.986192968
19073,Ce2Ge4Pt7,-0.789843199
19074,CeP2,-1.021977424
19075,CeCoSb3,-0.542134878
19076,CeNiSb3,-0.578081029
19077,Ce13Zn58,-0.265274823
19078,Ce2CuGe6,-0.417770512
19079,Ce3Si11Pt23,-0.877480454
19080,Ce2Ga12Pd,-0.408728619
19081,Tl2CdGeTe4,-0.267287649
19082,Ce2Ni12P7,-0.754191817
19083,NaCe(PSe3)2,-0.738984736
19084,Ce(NiP)2,-1.010660087
19085,Ce20Mg19Zn81,-0.243499137
19086,Ce3SiPt5,-1.088187955
19087,Ce3Pb,-0.262802318
19088,Tl2CdSnTe4,-0.307870613
19089,KRb3CdCl6,-2.069244359
19090,Ce5Si3,-0.546615313
19091,PbCl4,-1.091568717
19092,Ce16Ru9,-0.326669226
19093,CeSmI4,-1.155075442
19094,Ce3CuGeSe7,-1.262731105
19095,Ce4Ru3,-0.371401395
19096,CeNdI4,-1.180399206
19097,VCl4,-1.615334988
19098,SrCeI4,-1.466969023
19099,CeCo3,-0.180020585
19100,OsCl4,-0.861054306
19101,Ce8Ni18P11,-0.96522014
19102,Ce5(SiN3)3,-1.487044551
19103,Ce3SiCuSe7,-1.306293169
19104,CeTe3,-0.97554013
19105,CsCeSiSe4,-1.237003234
19106,Ce2ZnNi2,-0.351475324
19107,Ce(PRu)2,-1.025140997
19108,CeNi5Sn,-0.393257511
19109,CsCeHgSe3,-1.211236042
19110,CeCuS2,-1.672380861
19111,Ce10S14O,-2.485740093
19112,CeTl5Fe2(NO2)12,-0.986502948
19113,CeGa6Pd,-0.480178754
19114,Ce4In8Ni7,-0.362741533
19115,CeNi3,-0.391076303
19116,Rb2CeCu3Te5,-0.686810969
19117,CeIr2,-0.775695565
19118,Ce(CoP)2,-1.008993419
19119,CeCl3,-2.665626609
19120,Ce(Ni5P2)2,-0.606138525
19121,Yb8Cl17,-2.737417049
19122,Ce2Si2O7,-3.532705784
19123,Cs5CeCu2(NO2)12,-1.167377571
19124,Ce4MnSe6O,-1.904171303
19125,Ce(PO3)3,-2.976336067
19126,CeMnSi2,-0.619662757
19127,CeMnNi4,-0.272328754
19128,Ce2Ga12Cu,-0.331793267
19129,Cs2Cr4Cd(HO4)4,-1.723656351
19130,Ce(InPt)2,-0.76192463
19131,CeSiHRu,-0.766136568
19132,Ce2In5Pd4,-0.588082304
19133,CeIn7Pt2,-0.402736904
19134,Ce3In3Ru2,-0.455849896
19135,Ce2Zn4Ru,-0.33224307
19136,Ce4(GeS4)3,-1.604438135
19137,CeRu2,-0.28556185
19138,Ce(PPt2)2,-0.861674483
19139,CeZnRh,-0.662797954
19140,CeSnRu,-0.614665298
19141,KCeCuTe4,-0.813582704
19142,Ce5NiGe2,-0.382286142
19143,Cs4CdNi3F12,-2.570388058
19144,Ce3Si2Rh3,-0.889773201
19145,Cs2Ce10Os2I17,-1.148885195
19146,Rb4V5CdClO15,-2.358643563
19147,Ce14Si11Ni6,-0.657364384
19148,Ce(HO)3,-2.219865776
19149,CeGePt,-1.036559227
19150,Ce2Si7Rh15,-0.866074362
19151,Cs3CeF6,-3.485425591
19152,K23Na8(CdIn4)12,-0.170575664
19153,RbCdH2I3O,-1.119020388
19154,CeCuSO,-2.276826065
19155,CeCu,0.002180781
19156,CeCu5Sn,-0.211593508
19157,Ce5Sn3,-0.521628254
19158,Ce12InPt7,-0.798875453
19159,CeTl2P2S7,-1.113268349
19160,Ce2(SeO3)3,-2.240538192
19161,CeErS3,-2.426156229
19162,CeGaPd2,-0.787795838
19163,Ce3MoO7,-3.432128059
19164,Ce2InNi2,-0.455818855
19165,CeZn3,-0.263249061
19166,CeCu4Sn,-0.061613674
19167,CeZn11,-0.178506534
19168,Ce5NiPb3,-0.368268168
19169,Ce4Sn25Pt12,-0.544822542
19170,Ce2Zn2Cu5,-0.153161649
19171,CeInPt,-0.916064664
19172,Ce4Te3N2,-1.552103959
19173,Ce6In5Pd12,-0.740397537
19174,Yb11(Ce2Se11)2,-1.569885271
19175,Ce(In2Pd)2,-0.525588171
19176,Ce2InCuSe5,-1.173339731
19177,CeIn4Pd,-0.439065661
19178,CeNiSnH,-0.57959367
19179,CeCoGeH,-0.637453522
19180,Ce2In3Ru2,-0.431321243
19181,Ce10Te19,-1.220115815
19182,Ce10S19,-2.173408606
19183,Ce3LuSe6,-1.81457264
19184,Ce6In14Pt11,-0.695185891
19185,NaCe4I7N2,-1.468972471
19186,NaCe(GaSe2)4,-0.896263705
19187,Ce2Mo4O15,-2.565920722
19188,Ce9(Ni13P6)2,-0.800691554
19189,CeSiNO2,-2.630269864
19190,Ce20Ti11(S22O3)2,-2.360875596
19191,CeSiP3,-0.701966864
19192,Ce10Se19,-1.613654077
19193,Ce2Fe17,0.010616925
19194,Gd2Cl3,-2.181411202
19195,Sr2CeIrO6,-2.853471421
19196,Ce3Sb5Pd6,-0.835430319
19197,CeP4(ClO)13,-1.55381118
19198,Ce3(Si3Pd10)2,-0.590823884
19199,K3Ce2(NO3)9,-1.553345142
19200,In2Cl3,-1.302488015
19201,Rb3Ce2(NO3)9,-1.555518402
19202,Ce3NCl6,-2.476332812
19203,KCe2CuSe6,-1.261851732
19204,Rb3Ce(PSe4)2,-0.884295905
19205,Dy5Cl11,-2.277253126
19206,Ce5(In2Pt)2,-0.661175985
19207,CeCuSb2,-0.63992378
19208,Ce3Ru,-0.161173806
19209,Ce(SnPt)2,-0.762114412
19210,Ce3(Ge3Pd10)2,-0.635653742
19211,Ce17O32,-3.951743842
19212,Ce2Dy2O7,-3.914954019
19213,Ce9DyO20,-3.867628313
19214,Ce8U2O21,-3.77513028
19215,YbCe9O20,-3.758041176
19216,Ce8Nd2O19,-3.890026235
19217,Na(Ce2Se3)4,-1.795528378
19218,Ce9GdO20,-3.861342876
19219,Ce11MnS16,-2.272243633
19220,Ce3Dy2O9,-3.907739455
19221,Na3Ce5Cl18,-2.506847604
19222,Ce4GeS3,-1.969691711
19223,Ce5CuSe8,-1.555423484
19224,Ce(Mo3Se4)2,-0.713195402
19225,Ce3NF6,-3.695871521
19226,Ce2PbS4,-1.900319995
19227,Ce2PbSe4,-1.403188461
19228,Ce3Nd2O9,-3.837919699
19229,Ce2USe4,-1.562060768
19230,Ce6Th4O19,-4.120696563
19231,Ce(Mo3S4)2,-1.270357413
19232,Ce2UTe4,-1.084537984
19233,Ce9SmO20,-3.859887506
19234,Rb2CeO3,-2.724573146
19235,Yb(CeS2)2,-2.423061392
19236,Ce10US16,-2.297738054
19237,YbTi2CdO6F,-3.044538992
19238,Ce4Si4N7ClO3,-2.123786889
19239,Ce9YO20,-3.863165916
19240,YbTiCdSbO7,-2.545146048
19241,Ce8Gd2O19,-3.908039638
19242,Yb2Ce8O19,-3.720423729
19243,NdTi2CdO6F,-3.184006424
19244,Ce4(LuS2)11,-2.457016541
19245,Ce3Ge5Pd14,-0.693993791
19246,Tm7Cl15,-2.173767389
19247,Ce25Ni49P33,-0.955369473
19248,Ce5Ir4,-0.683929789
19249,Ce2Mg17,0.028071464
19250,Ce5Mg41,0.008996678
19251,Ce5Rh4,-0.635472198
19252,Ce4(SiS4)3,-1.76723023
19253,Ce6Si4S17,-1.810964866
19254,CeSI,-1.902731136
19255,K5CeCu2(NO2)12,-1.170384283
19256,Cd7Te7Cl8O17,-1.526272683
19257,Ce7(GePd2)2,-0.440535469
19258,Ce3NbS3O4,-2.999563322
19259,YbCeS3,-2.261166444
19260,Ce16O27,-3.905746156
19261,Ce13O24,-3.950149075
19262,EuTi2CdO6F,-3.042703632
19263,NaCeH2S2O9,-2.297072445
19264,Ce14Gd18O55,-3.868064776
19265,Ce4Y6O17,-3.881808744
19266,CePaO4,-4.130180212
19267,YTi2CdO6F,-3.202749626
19268,ThCd(MoO4)3,-2.441488013
19269,K5CeFe2(NO2)12,-1.231508536
19270,Ce4FeSe6O,-1.832624435
19271,Na5Ce3Ti6Nb2O24,-3.265991196
19272,GdTi2CdO6F,-3.190538753
19273,CdGePH3O7,-1.572082927
19274,Ce(FeP)2,-0.997625537
19275,CdH2SeO4,-1.399100987
19276,Ce2(GeO3)3,-2.74080643
19277,CeMg2H7,-0.395122577
19278,Na2CdH4(SeO5)2,-1.518173381
19279,LiCd2HSe2O7,-1.558307215
19280,K2CdH4(SeO5)2,-1.543428231
19281,Na2CdH4(SO5)2,-1.915013477
19282,Ce3Zn22,-0.237246356
19283,K2Cd3H10S4O21,-1.413175495
19284,K10Zr3Cd(MoO4)12,-2.382355926
19285,CePPd,-1.204015798
19286,CsCeS2,-2.08247881
19287,CeHg,-0.27469161
19288,CdFe2Sb2(PO4)6,-2.400512044
19289,K5CeCo2(NO2)12,-1.222737331
19290,K5CeNi2(NO2)12,-1.191255716
19291,Cs5CeNi2(NO2)12,-1.176158491
19292,Rb5CeCo2(NO2)12,-1.218054449
19293,CdFeSn(PO4)3,-2.430041787
19294,ZrCd2H12(O3F4)2,-2.085187988
19295,CeCoSi2,-0.786567429
19296,K5Ce2H2S6O25,-2.469885689
19297,CeGa6,-0.322504807
19298,Ce3Sn13Rh4,-0.554009981
19299,CdH2SeO5,-1.356750011
19300,CdH18Se4(N2O7)2,-1.061684044
19301,MgCdH4(N2O5)2,-1.250047445
19302,CeP2(HO4)2,-2.175703811
19303,CdHSeNO6,-0.977007847
19304,CeZn3Cu2,-0.254596687
19305,KCeS2,-2.121972515
19306,Ce2H16S3O20,-1.635886861
19307,KCdP3H8O13,-2.00767311
19308,TiCdFe(PO4)3,-2.675373278
19309,Cd4NiH20(ClO)10,-1.3709178
19310,Na3Cd4P6H10(ClO8)3,-1.637467771
19311,CdNi2H24(ClO2)6,-1.315671468
19312,Ce2Sm2O7,-3.832782925
19313,CeHfO4,-3.935738438
19314,CeZr11O24,-3.824490595
19315,CeTh2O6,-4.233274156
19316,Ce5Gd2O13,-3.898594941
19317,Ce5Y2O13,-3.911676881
19318,Ce4ThO9,-4.012798273
19319,CeU5O12,-3.806506702
19320,Ce3Th2O9,-4.071453988
19321,TbCeO4,-3.566205369
19322,Ce5Dy2O13,-3.922293999
19323,Ce5Sm2O13,-3.891649747
19324,CeTh3O8,-4.27052846
19325,CdCuH8(ClO)4,-1.294371181
19326,Ce4ThO8,-3.859813932
19327,CeSmO2,-3.176761971
19328,Ce3TaO7,-3.723345024
19329,Ce3Th3O11,-4.131154183
19330,Ce4SmO9,-3.903593089
19331,Ce2TiO5,-3.654936976
19332,CeTiO3,-3.495857176
19333,Li2CeO3,-3.010711549
19334,Ce2SeO2,-3.265971098
19335,Ce3Y4O12,-3.898298924
19336,Ce2Ti2O7,-3.677762183
19337,La2Ce2O7,-3.911229296
19338,NaCeO2,-2.949803059
19339,CePrO2,-3.131259893
19340,Ce2S2O,-2.909916671
19341,La3Ce4O12,-3.876495976
19342,Ce4DyO9,-3.927956081
19343,CeZr6O14,-3.796737401
19344,Ce6Y2O15,-3.935433241
19345,Ce2Th2O7,-4.058456543
19346,SrCd2H16(Cl3O4)2,-1.477418601
19347,CeTh9O20,-4.33995754
19348,Ce2UO6,-3.942322674
19349,Ce4Y2O11,-3.897163468
19350,CeCu5,-0.098577417
19351,CeCo5,-0.105068169
19352,Ce4ThO10,-4.027383992
19353,CeZr9O20,-3.796916976
19354,Ce3Th4O14,-4.190133329
19355,Cs2CeO3,-2.699716839
19356,Ce(ClO4)3,-1.094665137
19357,Ce(ClO4)4,-0.983675926
19358,CeReO4,-2.819174792
19359,Ce(WO4)2,-2.565134855
19360,SrCe2O4,-3.52463156
19361,Ce2Ga10Ni,-0.421946013
19362,Ce4YO9,-3.925877736
19363,Ce2U3O10,-3.872693946
19364,CeFeO3,-2.968084174
19365,CeNiO3,-2.646608705
19366,CeScO3,-3.861141099
19367,Ce(IO3)2,-1.731157995
19368,Li2CeN2,-1.131634085
19369,LiCeO2,-3.093004812
19370,Li8CeO6,-2.444589461
19371,ErCl2,-2.226584772
19372,Ce3Zn11,-0.273398342
19373,CeHg3,-0.308413212
19374,CeGa3,-0.549633278
19375,IrCl2,-0.347944707
19376,InCl3,-1.433480819
19377,PmCl2,-2.334825506
19378,PmCl3,-2.648759257
19379,CeTl5Co2(NO2)12,-0.989256699
19380,HoCl2,-2.246207146
19381,HoCl3,-2.6572138
19382,NaCeTl2,-0.165304786
19383,CeSiRu,-0.76209804
19384,LuCl3,-2.641097729
19385,YbCl2,-2.882031624
19386,YbCeHg2,-0.455639335
19387,YbCeZn2,-0.239910668
19388,Li2CePb,-0.24197304
19389,Li2CeTl,-0.10959506
19390,CeYMg2,0.009448865
19391,Ce4MgRu,-0.058903439
19392,KSr2Cd2Sb3,-0.701147132
19393,CeMo12(NO27)2,-1.367285696
19394,Ce3(TaN3)2,-1.582283076
19395,RhCl2,-0.754130081
19396,LiCeTl2,-0.242214782
19397,PuCl2,-2.099665216
19398,SmCl3,-2.645244517
19399,ErCl3,-2.652073451
19400,Ce2CrN3,-1.45120916
19401,Cd2TeCl2O3,-1.517529515
19402,CeRh2,-0.722235655
19403,SrCe3,0.377778379
19404,U3Cl,0.110997565
19405,LiCe2Ru,-0.089220051
19406,LiCeO3,-2.560362369
19407,Na3Cd2IrO6,-1.555865236
19408,Ru3Cl,0.809012663
19409,Pr3Cl,-0.284012436
19410,CeCuO3,-2.338632541
19411,Ce2ZnPb,-0.24277377
19412,Ce3(SiRh)2,-0.854345658
19413,SnCl,-0.800645797
19414,Tl3Cl,-0.479810192
19415,PmCeTl2,-0.293757404
19416,PmCeZn2,-0.238463932
19417,CeYIn2,-0.42600335
19418,CeYZn2,-0.258028013
19419,CeErMg2,0.001457785
19420,CeDyZn2,-0.255179618
19421,CeGe5,-0.293683129
19422,Ce3Zn,-0.0402489
19423,CeDy3,0.08270322
19424,Ce2USe5,-1.567453688
19425,Ce3Pa,0.121095214
19426,Ce2HfS5,-2.279141003
19427,Ce2ZnHg,-0.204168005