id,Composition,FormationEnergy
17317,RbCa(H2N)3,-0.692781874
17318,Ca2H2S2O7,-2.376267532
17319,CaZnSiH2O5,-2.506458359
17320,K3CaP2HO8,-2.752419608
17321,Ca6Si2H6O13,-2.787116595
17322,KCa2P4H11O18,-2.269197703
17323,CaP4(HO6)2,-2.606280548
17324,CaH12(IO7)2,-1.321458627
17325,NaCaGaSi2O7,-2.504202409
17326,CaFe2Sb2(PO4)6,-2.541649601
17327,Yb3Ca5Ti5Mn3O24,-3.247845288
17328,Ca6Nd6ScMn11O36,-2.833541142
17329,NaCa9Co(PO4)7,-3.192774938
17330,Ca13Si10H12(O17F5)2,-3.109863138
17331,CaSiCuH2O5,-2.308984805
17332,CaH2(SO4)2,-2.20853805
17333,Ca3MnCoO6,-2.56265973
17334,CaLaMnMoO6,-2.874405489
17335,CaLaVFeO6,-2.933247659
17336,NaCa2V3Zn2O12,-2.56888586
17337,NaCa2Mg2V3O12,-2.871236452
17338,Ca3La5Mn6(CuO12)2,-2.700437662
17339,Ca9LaTi6Mn4O30,-3.202448236
17340,Ca6Pr6Mn11CrO36,-2.766572892
17341,CaP2(H2O3)3,-2.21179136
17342,KCa2P4H9O17,-2.34120868
17343,CaDyMnSnO6,-2.833767702
17344,Ca9LaMn10O30,-2.567483715
17345,KCaP3H4O11,-2.430709931
17346,Ca2P2H4O9,-2.574167809
17347,Ca3P4H20(NO10)2,-1.980717641
17348,CaZn2(H5O4)2,-1.589176132
17349,CaH2I2O7,-1.487228968
17350,K2CaH8(N3O)4,-0.85969087
17351,CaP3H16(NO4)3,-1.548884761
17352,CaZrSi2O7,-3.522677014
17353,CaTi2(HO3)2,-2.975180638
17354,Ca6La14Mg7Ti13O60,-3.638324033
17355,CaZnSO,-2.221332971
17356,CaGa2Cu3(RuO6)2,-1.668504546
17357,CaH4NClO5,-1.652396873
17358,Na4CaTa4TiO15,-3.172487454
17359,KCa(H2N)3,-0.697178031
17360,Ca2CdH24(ClO2)6,-1.56060801
17361,Na13Ca7S12(ClO16)3,-2.531297223
17362,CaPH4O5F,-2.3218306
17363,CaH14I10O7,-1.055466679
17364,CaFe3Si2HO9,-2.576755353
17365,CaZnP2H5O8,-1.90822148
17366,Ca3Si9Cu5O26,-2.758551025
17367,CaH3NO5,-1.720188806
17368,Rb2CaH8(N3O)4,-0.85979272
17369,CaU2Si2H12O17,-2.378436456
17370,CaH4Se2O7,-1.683380399
17371,CaMg2H24(ClO2)6,-0.450353456
17372,CaV2P3HO12,-2.753688743
17373,Ca2Mn3P3H6O17,-2.170718027
17374,CaNdMn2O6,-2.765717685
17375,CaV2P2(H4O7)2,-2.162589352
17376,Ca3Hf2Fe2SiO12,-3.272939135
17377,Ca2Fe3Sb(PO4)6,-2.653065639
17378,Ca3Zr2Fe2SiO12,-3.197583808
17379,Ca5Dy3Ti5Mn3O24,-3.366950545
17380,NaCa2V3(CoO6)2,-2.501445294
17381,Ca5Y3Ti5Mn3O24,-3.356874971
17382,Ca3La5Mn7CrO24,-2.866903438
17383,Na3Ca18Fe(PO4)14,-3.23079488
17384,Ca6La2Mn7CrO24,-2.663367829
17385,Ca2YFe4SbO12,-2.508737829
17386,Ca5La7Mn7Ru5O36,-2.68834188
17387,Ca2CrH2I2O11,-1.811921706
17388,CaFe2P3HO12,-2.574748383
17389,Ca3Mn2(GeO4)3,-2.600199632
17390,Ca2Mn2Si4H6O17,-2.452120313
17391,Ca12Mn8Si7(H5O16)3,-2.376103828
17392,Ca2Ti6N2O11,-3.165633467
17393,Ca4Zr3TaO12,-3.576467337
17394,CsCa(NO2)3,-1.532191999
17395,CaH12S2(NO5)2,-1.534793556
17396,CaH12(IO6)2,-1.424509445
17397,Li2CaSiO4,-3.044906567
17398,Li2CaGeO4,-2.618324032
17399,LiCa2Nb3O10,-3.165405104
17400,Ca5Mn4O9,-2.709422241
17401,K2CaCu(NO2)6,-1.27876197
17402,Ca3W2O9,-2.773511374
17403,Ca(SeO3)2,-1.764737259
17404,Li7Ca8Nb12O40,-3.112438851
17405,Ca5Ge3O11,-2.928069445
17406,LiCa2Ta3O10,-3.331584918
17407,CaV5H19O23,-1.807058231
17408,Li4CaNiO4,-2.010303934
17409,CaZrS3,-2.135483261
17410,Ca5W3O14,-2.865564292
17411,Ca3WO6,-3.065938199
17412,CaSb2H2F14,-2.789730168
17413,Ca2FeP2(H2O3)4,-2.244231866
17414,Ca2CrO4,-2.825892782
17415,Ca2CrO8,-2.014551188
17416,Ca9Mn(PO4)7,-3.233427263
17417,Ca9Co(PO4)7,-3.196787144
17418,Ca(Mo3S4)2,-1.226384557
17419,CaReH4ClO6,-2.035942637
17420,CaU(PO4)2,-3.243616915
17421,Ca2TiSiO6,-3.415263179
17422,NaCa9Mg(PO4)7,-3.29584745
17423,KCa9Mg(PO4)7,-3.298027483
17424,CaSn4(PO4)6,-2.613406928
17425,Ca6In2NF,-1.151622992
17426,Cs2CaSnCl6,-2.207987058
17427,Cs2NaCaF6,-3.08366276
17428,Ca6Pb2SeN,-0.964848875
17429,Ca6Sn2NO,-1.350482899
17430,Ca6Sn2NF,-1.359702461
17431,Cs2NaCaCl6,-2.173161664
17432,Ca3TiNiO6,-2.945193905
17433,CaLaTaCrO6,-3.307953851
17434,CaCr3(P2O7)2,-2.684608648
17435,CaFe3(P2O7)2,-2.662050345
17436,CaLaCrCuO6,-2.486405235
17437,CaCo2(PO4)2,-2.564865766
17438,CaNi2(PO4)2,-2.414355362
17439,CaMo2P2O9,-2.708354068
17440,CaCr2P2O9,-2.823153309
17441,CaFe2(PO4)2,-2.707167185
17442,CaFe2P2O9,-2.657873249
17443,CaMn2P2O9,-2.689284002
17444,CaTi2(CuO4)2,-2.40189452
17445,CaP2W2O9,-2.541086991
17446,CaCu2(SbO4)2,-1.700740158
17447,CaP2(WO4)2,-2.18385822
17448,CaCu2(TeO4)2,-1.545169949
17449,CaTa2(CuO4)2,-2.547760941
17450,CaTi3P3O13,-3.080636704
17451,CaTiP2O7,-2.911107635
17452,CaHoCr2O6,-2.928958701
17453,CaSb3P3O13,-2.432680304
17454,CaCu3P3O13,-2.083382456
17455,CaHo(CoO3)2,-2.350849565
17456,CaHo(FeO3)2,-2.663102478
17457,CaSn3P3O13,-2.484794242
17458,CaHoV2O6,-3.132126986
17459,CaHo(NiO3)2,-2.049680349
17460,CaHo(WO3)2,-2.696374702
17461,CaSnP2O7,-2.756957338
17462,CaHo(MoO3)2,-2.852218325
17463,CaCu2(SnO4)2,-1.664859237
17464,CaV2(CuO4)2,-2.120701543
17465,CaCo2(CuO4)2,-1.287387211
17466,CaCu2(MoO4)2,-1.96967256
17467,CaCr2(CuO4)2,-1.783930156
17468,CaCu2(WO4)2,-1.948188717
17469,CaFe2(CuO4)2,-1.421343567
17470,CaCu2(NiO4)2,-0.912191207
17471,CaMo3P3O13,-2.608867243
17472,CaV3P3O13,-2.835261524
17473,CaCo3P3O13,-2.325433798
17474,CaCr3P3O13,-2.736378388
17475,CaMn3P3O13,-2.621376464
17476,CaP3W3O13,-2.430560192
17477,Ca2MnNiO6,-1.966719488
17478,Ca3Mn2(SbO6)2,-2.347091977
17479,Ca3Ta2Mn2O12,-2.92591414
17480,CaMnIrO6,-1.642583169
17481,CaFeWO6,-2.204699432
17482,Ca3Fe2(WO6)2,-2.519873055
17483,CaLa2Mn2(FeO6)2,-2.443582288
17484,CaCu2(GeO3)4,-1.853628647
17485,Ca3Co2(Si2O7)2,-2.919386634
17486,CaFeMoO6,-2.139569585
17487,CaLa2MnO6,-3.205387196
17488,CaLa2CoO6,-2.959980427
17489,CaLa2VO6,-3.391079567
17490,CaP4W3O14,-2.19514053
17491,CaMnWO6,-2.315349972
17492,Ca2Cr2(SiO4)3,-2.907542393
17493,CaLa2MoO6,-3.219716202
17494,CaCo2(SiO3)4,-2.728527348
17495,Ca2CuIrO6,-1.935621911
17496,CaCoSi2O7,-2.605950514
17497,Ca3Cu6(PO4)8,-2.232277872
17498,Ca2La5Mn7NiO24,-2.662974805
17499,Ca3Mn2(GaO5)2,-2.476187915
17500,CaTi2Fe2(PO4)6,-2.748078706
17501,CaNd2Ti2Mn2O12,-3.071876466
17502,CaFe2(SiO3)4,-2.94385583
17503,CaMn2(P2O7)2,-2.660869659
17504,CaMnSi2O7,-2.874553666
17505,Ca2Mn2(SiO4)3,-2.83280493
17506,Ca2Fe2(SiO4)3,-2.739679915
17507,CaV4(CuO7)2,-2.055791272
17508,Ca5Nb4(CoO9)2,-2.937461032
17509,CaCr2(SiO4)3,-2.541531844
17510,Ca2Nb2CoO9,-2.74607728
17511,CaV2Ni2(P2O9)2,-2.455188549
17512,CaV4(CoO7)2,-2.194452437
17513,Ca8Cr(PO4)7,-3.115535722
17514,CaNiWO6,-1.792815429
17515,CaSi4(NiO6)2,-2.558098492
17516,CaMn2(SiO3)4,-2.939868559
17517,CaCo2(P2O7)2,-2.456472679
17518,Ca3Fe2(MoO6)2,-2.500306605
17519,Ca3Fe2(ReO6)2,-2.501101858
17520,CaSi8(CuO10)2,-2.855292637
17521,CaMnFeO5,-1.965017916
17522,CaCr2(P2O7)2,-2.689258999
17523,CaVP2O7,-2.901720959
17524,Ca3Co2(TeO6)2,-2.091372422
17525,Ca5Cu2(RhO6)2,-2.130501721
17526,Ca5Mn2(NiO6)2,-2.261023745
17527,CaLa2Ti2Cr2O12,-3.158898788
17528,CaFeReO6,-2.329834209
17529,Ca5Sc2(CoO6)2,-2.865392544
17530,Ca2CoRhO6,-1.963493565
17531,Ca3Mn2(FeO5)2,-2.333621627
17532,Ca5La10Mn14(NiO24)2,-2.727186645
17533,Ca3Cr2(GeO4)3,-2.709500534
17534,Ca3Co2(WO6)2,-2.391822753
17535,CaLa2SnO6,-3.26717667
17536,CaLa2FeO6,-3.021352213
17537,CaLa2CrO6,-3.202705754
17538,CaFeP2O7,-2.833718362
17539,CaLa2TiO6,-3.700459464
17540,Sr8CaRe3(CuO6)4,-2.43903212
17541,CaNi2(P2O7)2,-2.33605479
17542,CaCr2(Si2O5)4,-3.038498364
17543,CaCoWO6,-2.016452025
17544,Ca3Mn2(WO6)2,-2.595413514
17545,Ca2FeRhO6,-2.102525847
17546,Ca3Ni2(WO6)2,-2.112354911
17547,Ca3Fe2(RhO6)2,-1.776910233
17548,CaLa2SbO6,-3.089960318
17549,Ca2CuRhO6,-1.880607304
17550,Ca5Cu2(IrO6)2,-2.143479584
17551,CaCu2(P2O7)2,-2.334118173
17552,CaLa2Ti2Mn2O12,-3.103308509
17553,Ca3Mn2(IrO6)2,-2.080319801
17554,Ca3Fe2(SbO6)2,-2.262542499
17555,Ca3Co2(RhO6)2,-1.661197641
17556,Ca3Nd4Nb6(FeO14)2,-3.135947525
17557,Ca3Ga2(FeO5)2,-2.385883373
17558,CaLa2WO6,-3.156158449
17559,Ca2CrWO6,-2.770920789
17560,NaCaFe2(SiO3)4,-2.922436415
17561,Ca3La5Mn7NiO24,-2.784051625
17562,CaSn(PO3)4,-2.701208753
17563,CaTi(PO3)4,-2.816693606
17564,CaCu(PO3)4,-2.609006978
17565,CaMn(PO3)4,-2.810690722
17566,CaCo(PO3)4,-2.713716326
17567,CaV(PO3)4,-2.81629729
17568,CaFe(PO3)4,-2.772868362
17569,CaNi(PO3)4,-2.667721438
17570,CaP4WO12,-2.550689857
17571,CaCr(PO3)4,-2.777009798
17572,Ca2Ta2TiO8,-3.268346539
17573,Ca2Ta2SnO8,-3.117033747
17574,Ca2Ta2CuO8,-2.984866445
17575,Ca2Ta2CrO8,-3.187090153
17576,Ca2Ta2NiO8,-3.006981517
17577,Ca2Ta2VO8,-3.21659362
17578,Ca2Ta2MnO8,-3.213681613
17579,Ca2Ta2CoO8,-3.072341178
17580,SrCaTi(PO4)2,-3.098138122
17581,SrCaCu(PO4)2,-2.850961327
17582,SrCaSn(PO4)2,-2.953745472
17583,Ca2Ta2FeO8,-3.154696605
17584,Ca4Cu5(TeO6)3,-1.797402937
17585,Ca2Ta2WO8,-2.940441584
17586,Ca4Ti5(TeO6)3,-2.871375224
17587,Ca4Sn5(TeO6)3,-2.138966762
17588,SrCaCo(PO4)2,-2.947583737
17589,SrCaMn(PO4)2,-3.075335714
17590,SrCaNi(PO4)2,-2.879011097
17591,SrCaV(PO4)2,-3.071128816
17592,SrCaCr(PO4)2,-3.050681824
17593,SrCaP2WO8,-2.731451052
17594,CaTiPO5,-3.212725235
17595,SrCaFe(PO4)2,-3.02256329
17596,Ca4Co5(TeO6)3,-1.996659969
17597,Ca4V5(TeO6)3,-2.39019729
17598,Ca4Ni5(TeO6)3,-1.853723349
17599,Ca4Cr5(TeO6)3,-2.274931517
17600,Ca4Fe5(TeO6)3,-2.146196069
17601,Ca4Te3W5O18,-2.106247152
17602,CaFeSiO5,-2.701440924
17603,Ca3Si3(CuO6)2,-2.733225952
17604,Ca3Ti2(SiO4)3,-3.399970668
17605,Ca3Si3(SbO6)2,-2.919966538
17606,Ca3Si3(SnO6)2,-2.935175115
17607,Ca3V2(SiO4)3,-3.196947391
17608,Ca3Co2(SiO4)3,-2.900684494
17609,Ca3Si3(MoO6)2,-3.113946623
17610,Ca3Si3(NiO6)2,-2.73521392
17611,Ca3Si3(WO6)2,-2.999021754
17612,Ca2TiSbO6,-2.977049246
17613,Ca2TaSbO6,-2.950314141
17614,Ca2SnSbO6,-2.559378469
17615,Ca2CuSbO6,-2.297622602
17616,Ca3Si4(CuO7)2,-2.821729262
17617,Ca2CrSbO6,-2.689585218
17618,Ca2VSbO6,-2.728413342
17619,Ca2NiSbO6,-2.255253157
17620,Ca2TaTiO6,-3.465039221
17621,Ca2CoSbO6,-2.411999119
17622,Ca2TaCuO6,-2.785583204
17623,Ca2SbWO6,-2.510817775
17624,Ca3Ti2(Si2O7)2,-3.354913053
17625,Ca2SbMoO6,-2.611991582
17626,Ca2TaSnO6,-3.007566316
17627,Ca3Ti2(GeO4)3,-2.912299541
17628,Ca3Cu2(GeO4)3,-2.248881679
17629,Ca3Sn2(GeO4)3,-2.483782544
17630,Ca3Ge3(SbO6)2,-2.451070496
17631,Ca3Si4(SbO7)2,-2.940807821
17632,Ca2TaVO6,-3.252869331
17633,Ca2TaFeO6,-3.103154562
17634,Ca2TaCoO6,-2.928215695
17635,Ca2TaMoO6,-3.133769072
17636,Ca2TaNiO6,-2.780848187
17637,Ca2TaCrO6,-3.220316522
17638,Ca3V2(GeO4)3,-2.703300524
17639,Ca2TaWO6,-3.019089998
17640,Ca3Co2(GeO4)3,-2.41127371
17641,Ca3Ni2(GeO4)3,-2.24383638
17642,Ca3Ge3(MoO6)2,-2.623609784
17643,Ca3Ge3(WO6)2,-2.507825539
17644,Ca3V2(Si2O7)2,-3.215688147
17645,Ca3Si4(SnO7)2,-3.004055036
17646,Ca3Cr2(Si2O7)2,-3.162558924
17647,Ca3Fe2(Si2O7)2,-3.066078439
17648,Ca3Si4(NiO7)2,-2.81916471
17649,CaTi(SiO3)2,-3.174432089
17650,CaSi2CuO6,-2.815264728
17651,CaSi2SnO6,-2.937879871
17652,Ca2MoWO6,-2.700472242
17653,Ca2CuWO6,-2.487816124
17654,Ca2SnWO6,-2.58695823
17655,Ca2VWO6,-2.817622358
17656,Ca3Si4(MoO7)2,-3.045546764
17657,Ca2TeWO6,-2.343642305
17658,Ca2TiWO6,-3.060750196
17659,CaCr(SiO3)2,-3.078424838
17660,CaV(SiO3)2,-3.144397102
17661,CaSi2WO6,-2.608789918
17662,Ca2YTiO5,-3.38977618
17663,Ca2Nb2MoO8,-2.911056184
17664,Ca2YCuO5,-2.707715272
17665,CaCu3(P2O7)2,-2.298578964
17666,Ca2Nb2NiO8,-2.847685245
17667,CaTi3(P2O7)2,-2.780795907
17668,Ca2Nb2CoO8,-2.913770572
17669,Ca2Nb2CrO8,-3.021786333
17670,Ca2TiIrO6,-2.82377023
17671,CaSn3(P2O7)2,-2.514082944
17672,Ca2SnIrO6,-2.343178302
17673,Ca2VIrO6,-2.495019496
17674,Ca2FeIrO6,-2.298306992
17675,Ca2CrIrO6,-2.408009813
17676,Ca2YWO5,-2.893942374
17677,Ca2CoIrO6,-2.161791971
17678,Ca2IrWO6,-2.393453005
17679,Ca2NiIrO6,-2.049553392
17680,CaP2WO7,-2.471731644
17681,Ca2YMoO5,-3.022213721
17682,Ca2YVO5,-3.196624027
17683,Ca2YSbO5,-2.940763962
17684,Ca2YMnO5,-3.044964077
17685,Ca2YCoO5,-2.83960941
17686,Ca2YCrO5,-3.135835346
17687,Ca2YFeO5,-3.003885192
17688,Ca2YNiO5,-2.682911451
17689,CaCuSb2O7,-1.859715053
17690,Ca2MnNb2O8,-3.053677066
17691,CaTa2CuO7,-2.872573473
17692,Ca2YSnO5,-2.988506688
17693,Ca2Nb2FeO8,-2.989850377
17694,CaCuW2O7,-2.035336165
17695,CaCuMo2O7,-2.086264369
17696,CaCr2CuO7,-1.962268933
17697,Ca2TiNb2O8,-3.138790296
17698,CaTi2CoO7,-2.786442372
17699,CaTa2CoO7,-2.987023912
17700,CaCoSb2O7,-2.013414376
17701,CaCr2CoO7,-2.058275441
17702,CaCoNi2O7,-1.057173989
17703,CaFe2CoO7,-1.65075283
17704,CaMn2CoO7,-1.79335463
17705,CaCoMo2O7,-2.166353193
17706,CaCu3(SbO3)4,-1.676698727
17707,Ca3Fe4(SbO4)6,-2.023688911
17708,Ca3V6(FeO6)4,-2.481851904
17709,Ca3Cr6(FeO6)4,-2.059241181
17710,Ca2Nb2SnO8,-2.964652047
17711,CaTi(GeO3)2,-2.729714486
17712,CaSn(GeO3)2,-2.285718648
17713,Ca3Fe4(WO4)6,-2.252289272
17714,CaTiNiP2O9,-2.893141583
17715,CaCoSn2O7,-1.945014052
17716,Ca3Ta6(FeO6)4,-2.954256114
17717,CaFeNiP2O9,-2.437035522
17718,CaMnNiP2O9,-2.480291561
17719,Ca3Fe4(MoO4)6,-2.080106791
17720,CaCoNiP2O9,-2.307066582
17721,CaCo4(CuO4)3,-1.36152818
17722,CaFe4(CuO4)3,-1.619766934
17723,CaCu3(NiO3)4,-1.041778867
17724,CaNi(GeO3)2,-2.213510856
17725,CaCo(GeO3)2,-2.290706238
17726,CaCr(GeO3)2,-2.405038143
17727,CaCrNiP2O9,-2.555213519
17728,CaCr4(CuO4)3,-1.8893376
17729,CaCu3(MoO3)4,-1.906506881
17730,CaV(GeO3)2,-2.449815911
17731,CaCu3(WO3)4,-1.826184584
17732,CaGe2WO6,-2.227224725
17733,CaNi2P2O9,-2.191973306
17734,CaTi(Si2O5)2,-3.179483634
17735,Ca2TaNb2O8,-3.056907778
17736,CaSi4SnO10,-3.088029978
17737,CaMn(GeO3)2,-2.46459456
17738,CaNiP2WO9,-2.541540882
17739,CaNiSbP2O9,-2.44461365
17740,CaTi2(PO5)2,-3.191407296
17741,CaFe(GeO3)2,-2.397682638
17742,CaSn2(PO5)2,-2.614465291
17743,CaSb2(PO5)2,-2.447397266
17744,Ca2Nb2SbO8,-2.854293498
17745,CaV(Si2O5)2,-3.145035714
17746,CaCo(Si2O5)2,-3.066696364
17747,CaSi4NiO10,-2.982314799
17748,CaNiMoP2O9,-2.55577527
17749,CaFe(Si2O5)2,-3.137784339
17750,CaMn(Si2O5)2,-3.162926917
17751,CaTiCu(PO4)3,-2.722915626
17752,CaSi4WO10,-2.971426181
17753,CaTaTi(PO4)3,-3.025472101
17754,CaTiSb(PO4)3,-2.821466797
17755,Ca2Nb2CuO8,-2.830439278
17756,CaLaTiFeO6,-3.264817556
17757,CaLaFeNiO6,-2.359847848
17758,CaLaFeSbO6,-2.774602958
17759,CaLa(FeO3)2,-2.653431716
17760,CaLaFeCuO6,-2.373368155
17761,CaLaFeCoO6,-2.521649514
17762,CaLaCrFeO6,-2.798589887
17763,CaLaFeSnO6,-2.601202657
17764,CaLaTaFeO6,-3.104572484
17765,CaLaFeMoO6,-2.823568235
17766,CaLaFeWO6,-2.830651072
17767,Ca2Nb2WO8,-2.816557084
17768,CaCo2(PO5)2,-2.16336397
17769,CaMn2(PO5)2,-2.459833631
17770,CaFe2(PO5)2,-2.389199238
17771,CaP2(WO5)2,-2.56620931
17772,CaTiV(PO4)3,-3.008639376
17773,CaNi2(PO5)2,-1.944586215
17774,CaMo2(PO5)2,-2.618167287
17775,CaCr2(PO5)2,-2.612125942
17776,CaTiCo(PO4)3,-2.833321929
17777,CaTiMn(PO4)3,-2.928912497
17778,CaTiCr(PO4)3,-3.001049909
17779,CaTiMo(PO4)3,-2.949108457
17780,CaTiP3WO12,-2.886853442
17781,CaTiNi(PO4)3,-2.741699309
17782,CaPrTi2O6,-3.602066937
17783,CaPr(CuO3)2,-2.092511606
17784,CaPr(SbO3)2,-2.511420841
17785,CaPr(SnO3)2,-2.686986571
17786,CaV3(P2O7)2,-2.764764689
17787,CaMn3(P2O7)2,-2.754824798
17788,CaTi2(PO4)2,-2.840199446
17789,CaSn2(PO4)2,-2.595754659
17790,CaPrCr2O6,-2.860992302
17791,CaPrV2O6,-3.06408621
17792,CaPr(CoO3)2,-2.312330889
17793,CaPr(NiO3)2,-2.002172169
17794,CaPr(FeO3)2,-2.619172748
17795,CaPr(MoO3)2,-2.775770855
17796,CaPr(WO3)2,-2.644485545
17797,CaSb2P2O9,-2.527904295
17798,CaTi2P2O9,-3.130420033
17799,CaSn2P2O9,-2.575749248
17800,CaV2(PO4)2,-2.79894682
17801,CaLaMnCrO6,-2.857335032
17802,CaHoTi2O6,-3.636197142
17803,CaHo(SbO3)2,-2.546162938
17804,CaHo(SnO3)2,-2.728965836
17805,CaMn2(PO4)2,-2.810271375
17806,CaLaCrCoO6,-2.623838761
17807,CaLaCr2O6,-2.910549318
17808,CaLaCrSbO6,-2.772797629
17809,CaLaCrMoO6,-2.932276661
17810,CaLaCrNiO6,-2.499975551
17811,CaLaCrWO6,-2.892981548
17812,CaLaCrSnO6,-2.917063373
17813,UCd2O5,-2.526183806
17814,CdSnSb2,-0.042787976
17815,HfCd,-0.072438253
17816,CdTe,-0.280738528
17817,CdSiP2,0.600778798
17818,CdN,0.943370694
17819,TmCd2,0.128420505
17820,NdCd2,-0.346588715
17821,LuCd2,0.13475423
17822,HoCd2,0.117376917
17823,Cd4SF6,-2.215895283
17824,Cd5(S2Cl)2,-1.044485142
17825,CdIrO3,-0.841769691
17826,ZrCdO3,-2.507291013
17827,TiCdO3,-2.49862076
17828,CdRuO3,-1.100323538
17829,MnCdO3,-1.422686667
17830,CdRhO3,-0.866626811
17831,CdSiO3,-2.186218939
17832,CdSnO3,-1.516806393
17833,CdOsO3,-1.063610104
17834,CdGeO3,-1.580948996
17835,VCdO3,-1.840270699
17836,HfCdO3,-2.696294124
17837,KCdF3,-2.709348336
17838,ZnCdSe2,-0.655927747
17839,ZrCd,-0.11547211
17840,CdCo3N,-0.037805615
17841,CdNi3N,-0.13833659
17842,SrCdO2,-2.209767533
17843,CrCdTe2,-0.138080667
17844,Zr2Cd,-0.116173177
17845,Hf2Cd,-0.065891057
17846,KCdSb,-0.406724205
17847,CeTlCd,-0.21410245
17848,EuCdPb,-0.432569517
17849,EuCdSn,-0.546134145
17850,LaTlCd,-0.372437717
17851,NdTlCd,-0.332853657
17852,PrTlCd,-0.34003535
17853,SmTlCd,-0.316231168
17854,Li4Ca2Mg(SiN3)2,-1.125568588
17855,LiCaMgSiN3,-1.184604509
17856,CdS,-0.719719862
17857,CdPPt5,-0.349837197
17858,Tl2CdTe4,-0.18543741
17859,CdPd5Se,-0.298013288
17860,ThCd3,-0.152570724
17861,GdCd,-0.363602958
17862,Pr(CdP)3,-0.483913166
17863,Sr3CdPtO6,-2.358267258
17864,RbCd13,-0.066096736
17865,CdSe,-0.481810024
17866,NdCd,-0.320683747
17867,CdCuSb,0.286974313
17868,Li2CdGe,-0.257822986
17869,LiCdP,-0.127676059
17870,Sc2CdS4,-1.941985244
17871,RbCd(NO2)3,-1.149390006
17872,TlCd(NO2)3,-0.951539456
17873,EuCdPd,-0.624835336
17874,CsYCdSe3,-1.372732765
17875,CsPrCdSe3,-1.369883039
17876,CeCd,-0.11058086
17877,ZrCdCu2,-0.150607135
17878,DyCd2,-0.31877998
17879,DyCd3,-0.284789711
17880,ErCd2,-0.30137761
17881,Cd2Hg,0.0096983
17882,TiCdHg2,0.051578588
17883,HoCd3,-0.275879139
17884,Li2CdPb,-0.24533349
17885,LuCd3,-0.237168588
17886,MgCd,-0.11123382
17887,NbCd3,0.147982763
17888,CdNi,0.37558664
17889,V3Cd,0.354787058
17890,ZrCd3,-0.106616783
17891,CdO,-1.382592396
17892,ErCd2Cu,-0.152881159
17893,CdPt,-0.32516914
17894,Ce2CdPt2,-0.953924777
17895,Ce2CdPd2,-0.668879899
17896,Pr2CdNi2,-0.348001268
17897,Nd2CdNi2,-0.366905955
17898,CeCdNi4,-0.351079297
17899,HoCdCu4,-0.248175043
17900,ErCdCu4,-0.250334017
17901,YbCdCu4,-0.252392698
17902,LaCd2,-0.381132659
17903,ThCd2,-0.17947398
17904,ScCd,-0.29435762
17905,CdP2,-0.129328198
17906,LaCd2Pd,-0.600476858
17907,CsErCdTe3,-1.079020904
17908,TbCsCdTe3,-1.09853764
17909,Li2CdSn,-0.32035193
17910,Cd3In,0.012761258
17911,Sr(CdGa)2,-0.349561962
17912,Pr2CdPd2,-0.738007137
17913,Sm2CdPd2,-0.77529254
17914,Dy2CdPd2,-0.817186025
17915,CdSb,-0.047429559
17916,YCd2,-0.340225917
17917,Cd2Cu(PO4)2,-2.161182634
17918,La2CdRh2,-0.66033732
17919,NaCdSb,-0.336395655
17920,CdPd3O4,-0.942093219
17921,NaCd4(PO4)3,-2.317010552
17922,CsCd(PO3)3,-2.567813893
17923,Sc2Cd3(GeO4)3,-2.432267962
17924,Cd3SiO5,-2.058537975
17925,CdSnF6,-2.739236068
17926,Cd(GaTe2)2,-0.380068446
17927,CdPdF6,-1.970752041
17928,UCdO4,-2.884247867
17929,Cd(RhO2)2,-1.231062546
17930,Cd3TeO6,-1.533571621
17931,LiCd,-0.253610175
17932,Tm2CdSe4,-1.509054187
17933,NaCd(PO3)3,-2.54393656
17934,Sr3CdIrO6,-2.371956743
17935,CdRhF6,-2.098322381
17936,Li6Ca12Re4N16O3,-1.320842081
17937,Dy2CdS4,-2.050213857
17938,CdGeP2,0.49412976
17939,Li2CdSb,-0.405184967
17940,Cd2Sb2O7,-1.800926765
17941,CdCu2SnSe4,-0.371601216
17942,CdCu2,0.011785357
17943,Cd2Re2O7,-1.77502315
17944,Rb2Cd3Se4,-0.854693725
17945,CdPd,-0.416791187
17946,HoCd,-0.31513525
17947,CsCd13,-0.06498057
17948,K6CdO4,-1.368542325
17949,CdS2O7,-1.926562124
17950,SrCdP2O7,-2.825583249
17951,K6CdTe4,-0.977524984
17952,Cd4SiSe6,-0.566368475
17953,K2Cd3S4,-1.141010222
17954,Cd4GeSe6,-0.50708373
17955,Cd4SiS6,-1.006469994
17956,K2Cd3Te4,-0.685160807
17957,Rb2Cd3S4,-1.143570988
17958,YbCd,-0.41265596
17959,CdSO3,-1.785287872
17960,Mn2CdO4,-1.87415573
17961,V2Cd2O7,-2.099261564
17962,Sr2CdWO6,-2.608475496
17963,CrCdO4,-1.66074548
17964,V2CdO4,-2.136783826
17965,Mn3Cd2O8,-1.758647834
17966,CdMoO4,-1.892640048
17967,Cr2CdO4,-2.144231903
17968,CdWO4,-1.997508521
17969,NaVCdO4,-2.145352511
17970,Li6Ca12W4N16O3,-1.264392271
17971,Li6Ca12Mo4N16O3,-1.286177779
17972,Eu(CdSb)2,-0.500956375
17973,CdIn2O4,-1.876286741
17974,Na2CdPb,-0.16125554
17975,CdInS2,-0.717683302
17976,Sr2CaTlCu2O7,-2.057642874
17977,GdCd2,-0.334297222
17978,Cd3P2,0.135938065
17979,Cd(InTe2)2,-0.386044377
17980,GdCdCu,-0.282329793
17981,GdCd3,-0.293681756
17982,LuCd,-0.301837095
17983,Cd(InSe2)2,-0.585742351
17984,Cr2CdSe4,-0.557854996
17985,Eu(CdP)2,-0.604902128
17986,TbCdF6,-3.137062185
17987,KCd(NO2)3,-0.098973712
17988,CdCl2,-1.485659372
17989,Rb4CdCl6,-2.062139852
17990,CdO2,-0.85729531
17991,PrCd2,-0.35370248
17992,RbCdCl3,-1.820497862