id,Composition,FormationEnergy
20860,Te6H6S(Cl13O2)2,-1.14447887
20861,Na3Pb2S3ClO12,-2.152195647
20862,Rb5Te3H4NCl18,-1.471717393
20863,Nd4Si4N7ClO3,-2.197580559
20864,NaZr2SN2Cl,-1.904961364
20865,Eu3LiSiCl3O4,-3.026800774
20866,TiSi4(NCl7)2,-1.681438843
20867,Cs4Ru2Cl10O,-1.708332993
20868,NbP2S2Cl5,-1.241918836
20869,P6N6Cl10O,-1.022226962
20870,CsTa6PbCl18,-1.752027404
20871,Sm8CrTe13Cl,-1.466294568
20872,Na21S7Cl(O14F3)2,-2.44768641
20873,ZnCuTeCl2O3,-1.370354566
20874,Th2Co7,-0.159066611
20875,Nb3TlVCl11,-1.627495056
20876,K6Fe24S26Cl,-0.861792806
20877,Cs5Te3H4NCl18,-1.501161521
20878,Nd4CuTe5(ClO5)3,-2.392113245
20879,GaP3(NCl3)3,-1.109433501
20880,Co2S3,-0.77346969
20881,Co19Te34,-0.182423
20882,Co27Se32,-0.210673433
20883,Co17Se20,-0.216535112
20884,Pr16Si16N27Cl3O14,-2.208170048
20885,SrNd10Se12(Cl2O9)4,-1.954584219
20886,Nd10Si10N17ClO9,-2.256208717
20887,Na3TlH24(ClO2)6,-1.236567691
20888,Co5Te4(ClO6)2,-1.440495653
20889,ZnH4(ClO3)2,-1.068635413
20890,La5Ti6S3(ClO5)3,-3.377649627
20891,Sr2CrClO4,-2.751376692
20892,TiCo2,-0.298984141
20893,H22RuN7(ClO2)4,-0.50256652
20894,Sb2H20(Cl4O3)3,-1.296850654
20895,K2CuH4(Cl2O)2,-1.508249635
20896,MnH8(N2Cl)2,-0.615827446
20897,H4NClO2,-0.723563573
20898,MgH12(ClO3)2,-1.514629224
20899,K3HPdS2(ClO3)2,-1.937134704
20900,MgH6(NCl)2,-1.090118995
20901,Te7WCl5O,-0.723967854
20902,H4NClO4,-0.775428988
20903,K4ErP6H6ClO21,-2.47797244
20904,Rb2MnV2(ClO3)2,-2.044003707
20905,Pr4Si4N7ClO3,-2.1861718
20906,NaRuH6N(ClO)4,-0.66573746
20907,MoSCl7O,-1.137183722
20908,Na2Co5Mo4(ClO4)4,-1.826152253
20909,KMoCl4O,-1.746263757
20910,VTe4Cl4O,-0.982652602
20911,K2H2RhCl5O,-1.190128472
20912,MnH12N2(Cl2O)2,-1.114629289
20913,SmCoSe2ClO6,-1.957764271
20914,Rb7U8V2ClO32,-3.212335598
20915,Cs7U8V2ClO32,-3.216351641
20916,Rb3CoNCl4O3,-1.718311548
20917,Co6Te3(ClO6)2,-1.460228388
20918,Sr5V3ClO12,-3.067236149
20919,SnH6Cl4O3,-1.396023156
20920,CsCoH18N6(ClO2)4,-0.670536319
20921,P3H4N5Cl4,-0.783068622
20922,Co29O40,-1.272901805
20923,Co23O32,-1.31910654
20924,CuH16(ClO8)2,-1.095052678
20925,Sr10P6ClO24F,-3.397034174
20926,H6PtN2ClO5,-0.668330961
20927,P6H26N7ClO19,-1.421036161
20928,H9OsN7Cl2,-0.293776925
20929,La2ThTa(ClO2)3,-3.622779045
20930,H2RhN2Cl5O,0.103143371
20931,K3HPtS2(ClO3)2,-1.943337576
20932,ZnCoH18N6Cl5,-0.830654818
20933,MgH12(ClO5)2,-1.343975614
20934,SnH12Pt(N2Cl3)2,-0.893068495
20935,P5H5N6(Cl4O)2,-1.052112256
20936,CuH6Se2NClO6,-1.082528905
20937,TeH12(Cl2O3)2,-1.306901737
20938,Cs2RuH4NCl5O3,-1.471028928
20939,H26Os2N12Cl4O9,-0.828224532
20940,K2Cu5H8(Cl4O3)2,-1.261279484
20941,KRe3Os3(Se4Cl3)2,-0.814427091
20942,Sr20P12Cl(O16F)3,-3.418934815
20943,H18RuN5(ClO)2,-0.739076145
20944,H4NClO5,-0.742041581
20945,VH11N3Cl5,-0.991476976
20946,H16RhN5(ClO4)2,-0.673746638
20947,CsMgH12(ClO2)3,-1.598205216
20948,SnH4(ClO)2,-1.384395742
20949,CsNa2H4Cl3O2,-1.755774341
20950,LiCuH4Cl3O2,-1.375368426
20951,SnH3S4N4Cl5O,-0.746073616
20952,H12PtN6(ClO3)2,-0.836279222
20953,ZnH12N3Cl5,-0.973306913
20954,UP3H10ClO8,-1.609598374
20955,Sm5Co2,-0.107021364
20956,H9PtN2ClO2,-0.897877898
20957,K2HI2ClO6,-1.374355567
20958,MoH2N2Cl5O,-0.132296475
20959,CoH20S2N6ClO4,-0.881246648
20960,FeH2Cl5O3,-0.447704587
20961,Rb2FeH2Cl5O,-1.711111411
20962,NaZnP2HClO7,-2.057562161
20963,FeH8(ClO2)2,-1.357137025
20964,CrH14N4Cl3O,-0.929342642
20965,MoH2Cl2O3,-1.526150572
20966,KMnH4Cl3O2,-1.636924236
20967,CoH12(ClO3)2,-1.348284242
20968,MgCoH16(ClO2)4,-1.456014306
20969,Fe2Te4H3ClO12,-1.559608715
20970,Mo3H9I3(ClO)4,-0.971482673
20971,Rb2CrH2Cl5O,-1.808427217
20972,NiPH4ClO3,-1.262358765
20973,NiH12(ClO6)2,-0.582121886
20974,CsFeH4Cl3O2,-1.586423858
20975,Mo6H20Cl14O9,-1.143741076
20976,CoPH4ClO3,-1.345424134
20977,ZnCrH15N5Cl4F,-0.989292161
20978,Mg2MnH24(ClO2)6,-1.541058963
20979,MnCuH10Se2(ClO5)2,-1.328697045
20980,CoH15N7ClO5,-0.331206673
20981,CoRuH16N10ClO10,-0.81626806
20982,RbFeH4Cl3O2,-1.573689249
20983,CoH17S2N5ClO4,-0.887682001
20984,CrH12(ClO2)3,-1.427884151
20985,CoH8(ClO2)2,-1.076995389
20986,CoSb2,-0.174610998
20987,ScH3(ClO5)2,-1.317683113
20988,SmH2ClO2,-2.46492269
20989,LuH6(ClO5)3,-1.221677289
20990,SbH5(Cl3O)2,-1.239533975
20991,P2H12N7Cl,-0.662092867
20992,InH10N2Cl5O,-1.08937042
20993,RbMgH12(ClO2)3,-1.590933973
20994,LiH2ClO,-1.673168477
20995,Co5O8,-1.22956135
20996,ZnH12N4Cl4O3,-0.968341979
20997,SnH10Cl4O5,-1.39469317
20998,K2InH2Cl5O,-1.783035209
20999,Li4Cu4Cl10O,-1.336836536
21000,Co15O28,-1.145432607
21001,Li4V5CuClO15,-2.214396313
21002,Li3CrClO4,-2.083662671
21003,Li2CrH8Cl5O4,-1.533996281
21004,LiFe2(ClO)2,-1.728538438
21005,Co7O12,-1.098442035
21006,CoNCl4O3,-0.729000331
21007,RuH12SN4(ClO)2,-0.886563284
21008,CoH5SeClO5,-1.328916434
21009,Ta2H15N6Cl7,-0.950421508
21010,CsTi(NbCl3)6,-1.767795312
21011,SmHIClO13,-1.098233252
21012,HgH10N2Cl4O,-0.969987158
21013,H4WNCl6,-1.102049537
21014,PH8N4Cl,-0.70673967
21015,CoTe,-0.057269532
21016,YCo,-0.190949685
21017,ThCo5,-0.140398426
21018,TiCo,-0.390001351
21019,SbH4NCl6,-1.037606784
21020,InH9(NCl)3,-0.896294266
21021,NaZn4H18SClO16,-1.569297406
21022,FeH10N2Cl5O,-1.047526175
21023,NaCrH22N6(Cl2O)2,-0.963888432
21024,Co21O40,-1.103827323
21025,CuH6(NCl)2,-0.731802028
21026,Pr3Co,-0.032939622
21027,PuCo2,-0.149727587
21028,InH4NCl4,-1.154381752
21029,PaCo3,-0.312030489
21030,MgCo2,-0.030771574
21031,MgH8(ClO6)2,-1.241153238
21032,Co3Pt,-0.096199206
21033,CoTc3,-0.052093053
21034,CoRe3,-0.06068012
21035,TlW2(Cl3O)2,-1.473815337
21036,CuH3NCl,-0.692592352
21037,H16RhN5(Cl2O)3,-0.902732948
21038,ReTeSeCl4,-0.936364503
21039,ReTeSCl4,-1.072111971
21040,UTa2S6Cl6O,-1.76069361
21041,RbZnH2Se2ClO6,-1.535355279
21042,NiH16(ClO8)2,-1.129528805
21043,CoPt3,-0.066187521
21044,ZrCo2,-0.308493712
21045,Co3S4,-0.807755986
21046,CoPt,-0.08867393
21047,ZnCo3,0.062460489
21048,Zn3Co,-0.027886554
21049,NaCo3,0.644224571
21050,Pb3I2(Cl2O3)2,-1.253244924
21051,Rb3Co,0.876459486
21052,Li3Co,0.336104689
21053,LuH2ClO2,-2.487550469
21054,K3Co,0.795746823
21055,HoH2ClO2,-2.484781915
21056,Mg3Co,0.160250992
21057,YbH2ClO2,-1.94925188
21058,Sm3Co,-0.097217626
21059,CoHg3,0.475447544
21060,Li6PS5Cl,-1.383218319
21061,CoSn3,-0.052235843
21062,Rb2SCl6F,-1.367030485
21063,LiTl2InCl6,-1.566497418
21064,Cs2NaSbCl6,-1.915433941
21065,Cs2ICl6F,-1.373198
21066,Cs2SCl6F,-1.386701895
21067,KRb2InCl6,-1.992890505
21068,Cs2SeClF6,-2.278522192
21069,Rb2NaSbCl6,-1.870124469
21070,Rb2NaInCl6,-1.980953088
21071,Cs2PbClF6,-2.356072924
21072,Rb2TlInCl6,-1.798036193
21073,Rb2NaTlCl6,-1.793894499
21074,Cs2NaInCl6,-2.018942337
21075,Rb2LiInCl6,-1.975207964
21076,MnCo3,0.057815876
21077,Mg(CoO2)2,-1.844458417
21078,ZnCo4O9,-0.976652462
21079,YSn3Se2ClO8,-1.67833933
21080,YSb3Se2ClO8,-1.571938492
21081,MgCoO2,-1.993047269
21082,Pr(CoO3)2,-1.641881621
21083,YCoO3,-2.636526704
21084,YMn3Se2ClO8,-2.043287423
21085,YCr3Se2ClO8,-2.059286927
21086,CoF4,-1.768497928
21087,Zn2Co3O8,-1.320212463
21088,YNi3Se2ClO8,-1.563110874
21089,MgCoF5,-2.898113663
21090,ZnCoF5,-2.367672916
21091,YCo3Se2ClO8,-1.759876364
21092,YTi3Se2ClO8,-2.60001481
21093,YFe3Se2ClO8,-1.936643253
21094,YV3Se2ClO8,-1.988302718
21095,Y(CoO2)2,-2.059707139
21096,Y(CoO2)3,-1.868131326
21097,YMo3Se2ClO8,-1.716482512
21098,Co9O13,-1.075825663
21099,Co5O7,-1.126009723
21100,Co(WO4)2,-1.705430205
21101,Co2O3,-1.090904459
21102,Co(Si2O5)2,-2.712556653
21103,ZnCo3O7,-1.07364432
21104,Nb4CoSi,-0.341243602
21105,Sm6GaCo2,-0.219048211
21106,Sm2Co12P7,-0.768948178
21107,Sm2(Ga3Co)3,-0.479143815
21108,Tb2Co3Ge5,-0.590406377
21109,Zr9CoMo4,-0.118722613
21110,Er3(In2Co)2,-0.243315223
21111,Er2Co3Ge5,-0.570280842
21112,GaCo2Ni,-0.102257286
21113,CrCo2Si,-0.304576355
21114,VCoTe,-0.020162508
21115,MnCoSe,-0.059161918
21116,MnCoTe,-0.084682779
21117,MnCoS,-0.272987637
21118,CrCoTe,0.083601782
21119,Ti2InCo,-0.01273037
21120,CrCo2Sb,0.05675655
21121,CoSnRh2,-0.214876944
21122,VCoSn,0.456600335
21123,CoPPd,-0.602290158
21124,HoCo3Cu2,-0.108926259
21125,LaCoSi,-0.690643196
21126,MnCoSb,-0.052404909
21127,MgCoGe,-0.292649575
21128,NdCoP,-0.934221918
21129,PrCoSi,-0.667874942
21130,PrCoP,-0.921817499
21131,SmCoP,-0.949176886
21132,SmCoSi,-0.70384944
21133,DyInCo4,-0.140330757
21134,HoInCo4,-0.148657687
21135,MnCoSn,0.476359776
21136,ScCoSi,-0.102223232
21137,CoNiSb,0.037000922
21138,ThCoSi,-0.711110952
21139,LuInCo4,-0.175571008
21140,FeCoGe,-0.11425793
21141,ErInCo4,-0.157355327
21142,FeCoSn,0.299646987
21143,LuGa5Co,-0.446061314
21144,Co2NiSe4,-0.276252328
21145,HfGa5Co,-0.352824866
21146,ErGa5Co,-0.463354504
21147,TiGa5Co,-0.329800714
21148,Fe(CoSe2)2,-0.262976845
21149,Cr2CoTe4,-0.140114618
21150,ScGa5Co,-0.451964037
21151,TmGa5Co,-0.458012599
21152,Ti2CoS4,-1.508792435
21153,TbGa5Co,-0.471139632
21154,Co(NiSe2)2,-0.270095298
21155,V(CoSe2)2,-0.410644721
21156,NpGa5Co,-0.210011005
21157,Ti2CoSe4,-0.903211739
21158,Nb2CoS4,-0.907709096
21159,ZrGa5Co,-0.415606744
21160,YGa5Co,-0.468618527
21161,TmCoSi2,-0.764545362
21162,LaZn2Co,-0.182847194
21163,CoMoP2,-0.621227664
21164,Tb2Co3Si5,-0.773257583
21165,Zr(CoGe)6,-0.330175454
21166,MnCoSi,-0.04437164
21167,Nb2Co3Si,-0.445771228
21168,CoPSe,-0.457764226
21169,CrCoGe,-0.08471607
21170,EuCoGe3,-0.481016495
21171,Mg2Co12P7,-0.624934687
21172,Mg(Co3P2)2,-0.634308662
21173,La3Co2Sn7,-0.569623129
21174,ErGaCo,-0.495504138
21175,Ho6GaCo2,-0.302110841
21176,ErCoSn,-0.488001711
21177,K(CoS)2,-0.894399238
21178,Mg(CoGe)6,-0.23416922
21179,Co(PdSe)2,-0.280907437
21180,Co(TePd)2,-0.296964662
21181,CoCu2Sn,0.194967071
21182,ErIn5Co,-0.235605802
21183,UCo4Sn,-0.106168986
21184,Mn2CoSi,-0.358150002
21185,Mn2CoSb,0.050656381
21186,PrCoGe3,-0.569696116
21187,SmCoSi2,-0.771446046
21188,LaCoCu12,-0.068755254
21189,LiCo2Ge,-0.217940259
21190,Ho2(Ga3Co)3,-0.482754594
21191,NdCoGe3,-0.567360039
21192,K6CoS4,-1.163838013
21193,K6CoSe4,-0.927847846
21194,TiCoSi,-0.785200747
21195,Lu2Co3Si5,-0.759539934
21196,Nb2Co12P7,-0.645708661
21197,Co4SnSb12,-0.120396702
21198,Dy2Co3Si5,-0.774306001
21199,Sm(CoSi)2,-0.788122402
21200,CrInCo2,0.20554065
21201,NdCo9Si4,-0.474887696
21202,Lu5(Co2Si7)2,-0.644197642
21203,ThCo9Si2,-0.342611478
21204,SmCo9Si2,-0.297868952
21205,Zr2Co4P3,-1.020131947
21206,Zr4Co7Ge6,-0.600317789
21207,PrCo9Si4,-0.469594594
21208,Hf2Co4P3,-0.998541945
21209,Sr2CoO4,-2.36222677
21210,Co2GeO4,-1.564182839
21211,Na4CoO3,-1.512127884
21212,CrCoO4,-1.60573879
21213,Na4(CoO2)7,-1.509794355
21214,Co2Te3O8,-1.507396082
21215,KCoO2,-1.493947256
21216,CoPdO2,-1.106746847
21217,NaCoO2,-1.601393018
21218,Li6CoO4,-1.958299728
21219,Co2SiO4,-2.136403492
21220,LaCoO3,-2.639752787
21221,UCoO4,-2.873122889
21222,CoWO4,-1.939948263
21223,CoTeO3,-1.438008598
21224,K6Co2O7,-1.58841187
21225,La4Co3O10,-2.814639529
21226,CoSO4,-1.87861022
21227,CoPtO2,-1.123789212
21228,Sr6(CoO3)5,-2.224189793
21229,Co(PtO2)3,-1.044377697
21230,Co3(PO4)2,-2.194534312
21231,V2CoO6,-2.136079638
21232,TiCoO3,-2.659033747
21233,Na7(CoO3)2,-1.552126338
21234,DyCoSi,-0.724722504
21235,Dy(CoGe)2,-0.611290984
21236,In2Co3S2,-0.51399192
21237,Co3(SnS)2,-0.535390685
21238,MnCo2Ge,-0.243031714
21239,TmIn5Co,-0.223305836
21240,La(CoGe)2,-0.588612275
21241,Co2CuGe2,-0.178321845
21242,ZnCo2Ge,-0.135127994
21243,LaCoGe3,-0.619566981
21244,SmGa5Co,-0.462386646
21245,U2InCo2,-0.124253157
21246,Eu(CoP)2,-0.893519156
21247,TiGaCo2,-0.517031118
21248,Mn2GaCo,-0.006602023
21249,CoNiSn,-0.008271488
21250,MnCoP,-0.643071286
21251,TbInCo2,-0.253017897
21252,U3Co2Ge7,-0.316381803
21253,TiCoSn,0.311347659
21254,U3Co4Ge7,-0.348841266
21255,NdCoGe,-0.605337107
21256,MnCoGe,-0.189560594
21257,DyCoSn2,-0.381403315
21258,VCo2Si,-0.422483993
21259,Y2Co3Si5,-0.766952677
21260,YbGa5Co,-0.394457534
21261,U(CoP)2,0.044272961
21262,UCoGe,-0.333154318
21263,Dy3Co6Sn5,-0.340916551
21264,HfCo2Sn,-0.391032746
21265,LaCoGe,-0.617875757
21266,U(CoGe)2,-0.304298323
21267,SmCoGe,-0.600526085
21268,UCoSi,-0.399681303
21269,MnCo2Sn,-0.10441762
21270,YbIn5Co,-0.222186598
21271,Np(CoSi)2,-0.367535935
21272,TbCoGe,-0.653195835
21273,MnGaCo2,-0.226665747
21274,In2CoS4,-0.775064452
21275,U2Co3Si5,-0.561887147
21276,TbCoSi,-0.742279259
21277,InFeCo2,0.068575938
21278,Cr2CoS4,-0.981645642
21279,VCoSi,-0.601790136
21280,HoIn5Co,-0.245858762
21281,LaIn5Co,-0.296108416
21282,U(CoSi)2,-0.567743729
21283,Nb4CoP,-0.423852954
21284,NbCoP,-0.87942833
21285,TiCo2Sn,-0.368330864
21286,VCo2Sn,-0.07334371
21287,Y3GaCo3,-0.339974621
21288,UCoSn,-0.15391977
21289,Ta11(CoSe4)2,-0.565438619
21290,Y2(Ga3Co)3,-0.486740651
21291,HfGa2Co,-0.510222503
21292,ScCoGe2,-0.588241625
21293,Yb(Ga4Co)2,-0.374287614
21294,Y4GaCo4,-0.310022277
21295,NdCoSi,-0.685432493
21296,K9Co2S7,-1.141388819
21297,Sm3Co6Sn5,-0.334279531
21298,Np(CoGe)2,-0.094251507
21299,SmGa4Co,-0.505973889
21300,Zr2InCo2,-0.345824412
21301,Co3Mo3N,-0.190224297
21302,Zr6Ga2Co,-0.408842142
21303,DyCoSn,-0.489802324
21304,Zr4Co4Ge7,-0.619551253
21305,CoMoP,-0.614591064
21306,Mn2InCo,0.198578058
21307,Mn2CoGe,-0.145930648
21308,FeCo2Ge,-0.158579986
21309,HfCoSn,-0.437302388
21310,ThCoSn,-0.533718286
21311,U2Co2Sn,-0.200208204
21312,ZrCoSb,0.132599725
21313,Y3(Co2Sn)4,-0.311517228
21314,Pu(CoSi)2,-0.630691407
21315,Mn2CoSn,0.127041041
21316,ZrCo2Sn,-0.37834432
21317,EuGa3Co2,-0.4013288
21318,Tb2CoGe2,-0.611518445
21319,Tb3(CoGe2)2,-0.72093329
21320,Co2NiS4,-0.836569036
21321,Mn2Co3Ge,-0.036288475
21322,Th3Co3Sb4,-0.721383705
21323,ThGa4Co,-0.489528645
21324,TiCoGe,-0.592631763
21325,VGaCo2,-0.302635999
21326,MnCoO3,-1.673570316
21327,Co(SbO3)2,-1.841879965
21328,DyCoO3,-2.670935282
21329,PrCoO3,-2.575369598
21330,LiCoO2,-1.782250924
21331,NdCoO3,-2.421834263
21332,Co2P2O7,-2.274602261
21333,SrCo6O11,-1.539285189
21334,GdCoO3,-2.439760461
21335,SmCoO3,-2.407906098
21336,Cr2CoO4,-2.128390624
21337,HoCoO3,-2.680379372
21338,TbCoO3,-2.660153377
21339,CoGeO3,-1.828688966
21340,Li(CoO2)2,-1.456544684
21341,La4CoO8,-3.224903529
21342,Co2P3O10,-2.283303375
21343,U2Co3O8,-2.610721183
21344,Sc2Co3Si,-0.610425744
21345,Rb2CoI4,-0.899708094
21346,Ho6(Ga3Co)7,-0.482104832
21347,TaCoTe2,-0.332276686
21348,Zr2CoP,-0.933540772
21349,Hf2CoP,-0.92874174
21350,Co(SiP)3,-0.320438621
21351,Na5Co2S5,-1.02175842
21352,Co2(GeS)3,-0.667684521
21353,Ta9(CoS3)2,-0.990015915
21354,Co2(GeTe)3,-0.217856275
21355,Fe2CoGe,-0.013545842
21356,Na6CoSe4,-0.872247713
21357,GaFeCo2,-0.225358806
21358,PrGaCo2,-0.154809258
21359,TaGaCo2,-0.344917634
21360,YGa2Co3,-0.369173035
21361,NbCoSn,0.699100482
21362,ZrCoSn,-0.473020531
21363,TbCoSn2,-0.400083543
21364,ErCoSn2,-0.344219861
21365,Dy2CoSi2,-0.76447391
21366,Lu2Ga3Co,-0.577392313
21367,Sc3Co2Ge3,-0.743076749
21368,ErCoSi2,-0.775812861
21369,TaCoSb,-0.126908155
21370,NbCoSb,-0.204244625
21371,Co(ReO4)2,-2.008377422
21372,Ta2CoO6,-2.942072986
21373,CoPO4,-2.129972178
21374,Na5CoO4,-1.567957911
21375,CoP2O7,-2.102135763
21376,Co10Ge3O16,-1.573127982
21377,Li8CoO6,-1.966904348
21378,Co(PO3)4,-2.275741668
21379,Co3(PO4)4,-1.941662347
21380,Co(PO3)3,-2.32671655
21381,Na3CoO2,-1.358210235
21382,K3CoO2,-1.302817978
21383,Rb3CoO2,-1.240385475
21384,Na3CoO3,-1.616191732
21385,Na4CoO4,-1.625324626
21386,CoReO4,-1.796031306
21387,Co3(P3O10)2,-2.237929706
21388,Co3P3O11,-2.199290414
21389,Co5(P3O11)2,-2.189270213
21390,Co2P5O16,-2.273371807
21391,K2CoO2,-1.467484285
21392,Er(CoSi)2,-0.829254392
21393,Tm(CoSi)2,-0.828798679
21394,Tb(CoSi)2,-0.822856513
21395,Co5SbO8,-1.522754735
21396,Co2CuO4,-1.14960236
21397,Fe2CoO4,-1.692937921
21398,Co2RuO4,-1.362181417
21399,Co5RuO8,-1.364264439
21400,HfGaCo2,-0.48216087
21401,Co2SnO4,-1.685293439
21402,Th(CoGe)2,-0.61311569
21403,Co2TcO4,-1.527279163
21404,TiCo2Si,-0.659535152
21405,Ti(CoO2)2,-2.277178377
21406,Na(CoO2)3,-1.190293404
21407,Ho2Co12P7,-0.804495786
21408,Tb(CoGe)2,-0.613480235
21409,CoGeTe,-0.219988041
21410,Sr2Co2O5,-0.610189088
21411,ScCo2Sn,-0.39920053
21412,LiCo7O8,-1.36574107
21413,Co2NiO4,-1.231220749
21414,Ga2CoO4,-2.036264159
21415,Na3(CoO2)4,-1.273872504
21416,Co2CuS4,-0.785100584
21417,Zr2CoSi2,-0.894201308
21418,VCoSb,-0.186564542
21419,Li(CoGe)6,-0.264190931
21420,Sc(CoSi)2,-0.78797719
21421,Ga2CoS4,-0.899814502
21422,Nd(CoSi)2,-0.757081745
21423,Sm(CoGe)2,-0.603405768
21424,NbGaCo2,-0.305017851
21425,La(CoP)2,-1.005978045
21426,Ho(CoGe)2,-0.605848024
21427,Tl(CoSe)2,-0.222198335
21428,MnCo2Si,-0.4354005
21429,Ho2Ga8Co,-0.482672875
21430,NbCo2Sn,-0.106034517
21431,TiCo2Ge,-0.496193225
21432,K(CoSe)2,-0.480393201
21433,UGa5Co,-0.325432141
21434,TbCo9Si4,-0.485913613
21435,Pr(CoGe)2,-0.578973868
21436,HoGa5Co,-0.462286383
21437,Y(CoGe)2,-0.612486226
21438,CoSbS,-0.571924795
21439,TbCoSi2,-0.788773777
21440,Nd(CoGe)2,-0.589940491
21441,CoCuO2,-1.165732337
21442,Pr8Ga3Co,-0.316919343
21443,LaCo8P5,-0.726193384
21444,CoCu2O3,-1.009063945
21445,YCo5P3,-0.837612805
21446,Pr(CoP)2,-0.964026849
21447,Nb3Co2Si,-0.36679789
21448,Nb9Co4Ge,-0.170410177
21449,Co2(GeSe)3,-0.352278598
21450,Nd12Co6Sn,-0.174295476
21451,Na(CoO2)2,-1.483808237
21452,Tb5CoSb2,-0.716261272
21453,Dy5CoSb2,-0.713880234
21454,Ho5CoSb2,-0.707057141
21455,Er5CoSb2,-0.700524736
21456,HoCoSi,-0.734705916
21457,Pr(CoSi)2,-0.73612671
21458,Y(CoSi)2,-0.82594574
21459,K2CoS2,-1.047374594
21460,NdCoSi2,-0.750166121
21461,Ho7Co6Sn23,-0.404971881
21462,Yb(CoSi)2,-0.680041538
21463,MnCo2Sb,-0.081211105
21464,Co3(P2O7)2,-2.231257743
21465,Mn3(CoO4)2,-1.715069105
21466,Nb2CoO6,-2.700250677
21467,La2CoO4,-3.108165316
21468,V2Co3O8,-1.937965466
21469,U2CoO6,-3.173788485
21470,Ti3Co3O,-0.634828298
21471,Tm8Ga3Co,-0.422921692
21472,Sc7CoI12,-1.10895061
21473,Co3W3N,-0.141027032
21474,La3Co3O8,-2.688883643
21475,UCo5Si3,-0.515941441
21476,Pr2Co3Ge5,-0.573019453
21477,Nb6Co16Si7,-0.542843674
21478,Co(NO3)2,-1.009145342
21479,SrCoO3,-1.978763274
21480,Co2Mo3N,-0.221455164
21481,HoCoSn2,-0.233931822
21482,Na9Co2O7,-1.530164177
21483,Sc5(Co2Si5)2,-0.737150582
21484,K6Co2O5,-1.365053273
21485,Gd(CoSi)2,-0.802365977
21486,Gd(CoGe)2,-0.601270245
21487,FeCo2Si,-0.3497696
21488,Rb5(CoO2)2,-1.330383468
21489,Rb2Co2O3,-1.394041993
21490,Co(PO3)2,-2.417223783
21491,V2Co2O7,-2.027766892
21492,Cs2CoO3,-1.52487457
21493,Na6CoS4,-1.146732269
21494,Er(CoGe)2,-0.600367422
21495,Tl(CoS)2,-0.619231308
21496,La(CoSi)2,-0.729921161
21497,RbCoF3,-2.662427051
21498,LiCoF4,-2.579589481
21499,NaCoF3,-2.640808916
21500,K3Co2F7,-2.71551097
21501,ZrCoF6,-3.307507235
21502,CoPtF6,-1.973161132
21503,Cs(CoS)2,-0.879229144
21504,K2CoF4,-2.67095456
21505,Cs2Co3S4,-0.932112591
21506,Rb2CoF4,-2.646133367
21507,HoCoSn,-0.488997546
21508,NbCoTe2,-0.371117556
21509,Co(RhO2)2,-1.195714149
21510,Rb(CoS)2,-0.881058764
21511,Rb2CoF6,-2.533826995
21512,NbCoO4,-2.291494724
21513,KCoF3,-2.502952175
21514,CoSnF6,-2.682483607
21515,LuCoO3,-2.713428106
21516,Cs2CoS2,-1.010965896
21517,Nd(CoP)2,-0.976678886
21518,Sr(CoP)2,-0.835341939
21519,Lu14(InCo)3,-0.313817001
21520,Nd4Mg3Co2,-0.109469849
21521,Er5(CoTe)2,-0.747417421
21522,Yb2Co12P7,-0.75870887
21523,Tb2Co2I,-0.603726987
21524,PrCoGe,-0.59042188
21525,Pr2Co2I,-0.562615934
21526,SmCo9Si4,-0.481255434
21527,CrGaCo2,-0.102643441
21528,Sm3(CoGe2)2,-0.698615558
21529,LaCo9Si4,-0.476157878
21530,Er3CoSi3,-0.795441945
21531,Yb6Co30P19,-0.788537531
21532,TbGa2Co3,-0.359948074
21533,Er2CoSi2,-0.779129539
21534,Yb(CoGe)2,-0.54895565
21535,PrCoSb3,-0.565210756
21536,SmCoSb3,-0.556926513
21537,Pr7CoI12,-1.247817559
21538,Cs3CoI5,-1.084973788
21539,Tb4Mg3Co2,-0.161859071
21540,Zr(CoSi)2,-0.804559378
21541,La4MgCo,-0.121891504
21542,U6Co30Si19,-0.543298985
21543,Yb3CoSn6,-0.477314927
21544,Rb(CoSe)2,-0.470321617
21545,Co2(SnSe)3,-0.368981902
21546,Sm26Ga6Co11,-0.232526996
21547,YCo3H2,-0.264408843
21548,Sm4Ga16Co3,-0.511505609
21549,Ta6Co16Si7,-0.578552066
21550,CrCoPt2,-0.140276394
21551,LaCoSb3,-0.603761307
21552,NdCoSb3,-0.564088258
21553,HfCoSb,0.23856962
21554,KIn9Co2,-0.085656933
21555,Cs(CoSe)2,-0.473522353
21556,Hf(CoSi)2,-0.761041909
21557,Lu(CoGe)2,-0.577167812
21558,Sm4Mg3Co2,-0.130359139
21559,Mg3Ga7Co2,-0.24620378
21560,Sm(CoP)2,-0.999470619
21561,Nb6Co16Ge7,-0.294155107
21562,Y5GaCo5,-0.290240654
21563,EuCo8P5,-0.687838746
21564,Ho(CoSi)2,-0.828497266
21565,TiCoSb,-0.660023824
21566,Dy(CoSi)2,-0.827019836