id,Composition,FormationEnergy
12434,Co5BiO12,-1.103083433
12435,Co3BiO8,-1.139437691
12436,La3Bi3O11,-2.506334384
12437,V3Bi2(PO4)6,-2.466945191
12438,VBiO3,-2.086114541
12439,Li2Ni2BiO6,-1.386540091
12440,Li2NiBiO4,-1.600324201
12441,Er(Bi3O5)4,-1.7710681
12442,LuBiO3,-2.84059038
12443,Bi3IO4,-1.501177799
12444,Er2Bi2O7,-2.561231022
12445,La2BiO5,-2.947053191
12446,CrBiO4,-1.746574695
12447,Na8Bi5O14,-1.664581074
12448,LiBi3(IO2)2,-1.517978182
12449,Bi3PO7,-2.100100469
12450,Na(BiO2)2,-1.591998289
12451,Li2Bi2(SO4)3,-2.013103506
12452,Na11Bi5O16,-1.667052978
12453,Na6Bi2P(CO4)4,-2.025931548
12454,Li9Bi5O13,-1.823063965
12455,Na4Bi2P(CO4)4,-1.979540374
12456,Na2Bi4O7,-1.69729872
12457,Na4Bi2O5,-1.648566619
12458,Na(Bi3O5)4,-1.557828843
12459,GaBi25O39,-1.662952037
12460,LiSi6BiO14,-3.029428065
12461,Si6BiO14,-2.972521467
12462,CuBiPtS3,-0.70583025
12463,Th2BiTe,-0.841015303
12464,YbBiPd2,-0.70720178
12465,KGeBiS4,-1.008882835
12466,KSiBiS4,-1.175779749
12467,Y(Bi5O8)3,-1.754525894
12468,Li5Si2BiO8,-2.584837796
12469,Li5(BiO3)4,-1.702538017
12470,Ta7BiO19,-3.211751866
12471,Yb2HgBi,-0.709709988
12472,SiBiO3,-1.833806365
12473,Nd2BiO2,-2.855974745
12474,NdBiO3,-1.901412164
12475,PrBiO3,-1.938265553
12476,Rb2NaBiCl6,-1.924633223
12477,Mg6Bi2PN,-0.499449904
12478,Cs2InBiF6,-2.716189643
12479,CuBiO2,-1.273274108
12480,LaCrBiO6,-2.194543194
12481,ZnCu2(BiO4)2,-1.157939556
12482,MgCu2(BiO4)2,-1.374362376
12483,CaCu2(BiO4)2,-1.410824248
12484,MgBi3P3O13,-2.37381415
12485,ZnBi3P3O13,-2.218800321
12486,CaBi3P3O13,-2.493701455
12487,Sr2GaBi2O7,-2.248362426
12488,Sr2YBi2O7,-2.401388149
12489,Ca3V2(BiO6)2,-2.470818306
12490,SrCuBiO4,-1.710261984
12491,Mg3Bi2(PO6)2,-2.415620599
12492,MgBiPO6,-2.124258931
12493,Zn3Bi2(PO6)2,-1.976902882
12494,Bi3Se2ClO8,-1.26023356
12495,MgV2(BiO5)2,-2.016644508
12496,YBi3Se2ClO8,-1.633725487
12497,CaV2(BiO5)2,-2.110035684
12498,Mg3V2(BiO6)2,-2.208380585
12499,Mg2Nb2BiO8,-2.739634425
12500,La2ZnBiO6,-2.651711911
12501,CaVBiO6,-2.157628614
12502,MgVBiO6,-1.995632054
12503,La2MgBiO6,-2.925001819
12504,CaLa2BiO6,-3.010015196
12505,Mg2BiSbO6,-2.211656158
12506,Sr2CaCu2(BiO4)2,-2.036221241
12507,YCu3(BiO3)4,-1.52216858
12508,Nb2Zn2BiO8,-2.33251704
12509,SrBi(PO4)2,-2.58333203
12510,Sr2YCu2BiO7,-2.331825668
12511,Sr2Cu2BiO7,-1.710944202
12512,Mg3Si3(BiO6)2,-2.633844371
12513,Zn3Si3(BiO6)2,-2.178009847
12514,Ca3Si3(BiO6)2,-2.948781175
12515,Zn2BiSbO6,-1.695517617
12516,Ca2BiSbO6,-2.458158009
12517,Mg2TaBiO6,-2.699317314
12518,Ca2TaBiO6,-2.955593453
12519,TaZn2BiO6,-2.175345888
12520,Mg3Ge3(BiO6)2,-2.157397084
12521,Ca3Ge3(BiO6)2,-2.475292193
12522,Zn3Ge3(BiO6)2,-1.70981517
12523,Mg3Si4(BiO7)2,-2.750962089
12524,Ca3Si4(BiO7)2,-2.949758872
12525,Zn3Si4(BiO7)2,-2.414047064
12526,Mg2BiWO6,-2.325800731
12527,Ca2BiWO6,-2.564918611
12528,Zn2BiWO6,-1.808488474
12529,Ca2YBiO5,-2.88631605
12530,MgCuBi2O7,-1.395088299
12531,ZnCuBi2O7,-1.143760987
12532,CaCuBi2O7,-1.506353182
12533,YBi(WO4)2,-2.460780131
12534,Ca2Nb2BiO8,-2.849754192
12535,MgBiSbO5,-2.056018747
12536,MgTaBiO5,-2.75363739
12537,MgTiBiO5,-2.543162922
12538,MgCuBiO5,-1.343396985
12539,CaTiBiO5,-2.682859137
12540,MgSnBiO5,-2.025064437
12541,ZnBiSbO5,-1.719387046
12542,TaZnBiO5,-2.367685415
12543,TiZnBiO5,-2.244502026
12544,CaBiSbO5,-2.227802684
12545,ZnSnBiO5,-1.673263825
12546,CaCuBiO5,-1.484027072
12547,CaTaBiO5,-2.914562376
12548,ReBiO5,-1.915389721
12549,ZnCuBiO5,-1.115613113
12550,CaSnBiO5,-2.147030028
12551,ZnCoBi2O7,-1.283450801
12552,CaCoBi2O7,-1.65045051
12553,MgCoBi2O7,-1.511430444
12554,MgMnBiO5,-1.870668364
12555,MgCrBiO5,-2.050964298
12556,MgCoBiO5,-1.606165109
12557,MnZnBiO5,-1.499235612
12558,MgBiMoO5,-2.172501857
12559,CaMnBiO5,-2.074217319
12560,VZnBiO5,-2.000002302
12561,CaCoBiO5,-1.786274803
12562,ZnBiWO5,-1.642113186
12563,CaCrBiO5,-2.2530505
12564,ZnBiMoO5,-1.801331917
12565,CaBiWO5,-2.196162352
12566,CaFeBiO5,-1.873807109
12567,CaBiMoO5,-2.3234612
12568,ZnCrBiO5,-1.676511509
12569,CaNiBiO5,-1.45703182
12570,ZnCoBiO5,-1.306864557
12571,MgBiWO5,-2.037007413
12572,MgNiBiO5,-1.364211906
12573,CaCu3(BiO3)4,-1.477581501
12574,ZnCu3(BiO3)4,-1.195938157
12575,MgCu3(BiO3)4,-1.330775623
12576,MgFeBiO5,-1.806998452
12577,ZnNiBiO5,-1.031552169
12578,ZnFeBiO5,-1.48549816
12579,Mg3Fe4(BiO4)6,-1.660873915
12580,Zn3Fe4(BiO4)6,-1.449570101
12581,MgNiBiP2O9,-2.239197892
12582,MgBi2(PO5)2,-2.302438959
12583,ZnBi2(PO5)2,-2.087988047
12584,NiBiP2O9,-1.862115343
12585,ZnNiBiP2O9,-2.015168471
12586,CaBi2(PO5)2,-2.355518981
12587,CaNiBiP2O9,-2.389797739
12588,CaTiBi(PO4)3,-2.831531964
12589,TiBi(PO4)3,-2.539384018
12590,TiZnBi(PO4)3,-2.576290098
12591,MgTiBi(PO4)3,-2.756953568
12592,CaLaFeBiO6,-2.567112957
12593,LaFeBiO6,-1.971041081
12594,LaZnFeBiO6,-2.178970277
12595,Si2Bi13(SbO14)2,-1.78833664
12596,PrMg(BiO3)2,-2.284206531
12597,CaPr(BiO3)2,-2.447520978
12598,PrZn(BiO3)2,-2.10366986
12599,ZnBi2P2O9,-2.182140068
12600,MgBi2P2O9,-2.413563822
12601,CaBi2P2O9,-2.583798135
12602,LaMgCrBiO6,-2.507317353
12603,HoMg(BiO3)2,-2.332438243
12604,LaZnCrBiO6,-2.278535759
12605,HoZn(BiO3)2,-2.152806797
12606,CaHo(BiO3)2,-2.485925807
12607,CaLaCrBiO6,-2.663209214
12608,BrCl,-0.344448592
12609,Br,0.16761199
12610,CsPbBr3,-1.323129397
12611,Bi2H18C3(IN)9,-0.519839399
12612,Ca2H3Br,-1.006916489
12613,Eu2H3Br,-1.020838918
12614,YFe2Bi2(SeO2)2,-1.593377917
12615,TbCBr,-1.097506588
12616,CdIBr,-0.72791826
12617,Cs2CaBr4,-1.949866076
12618,Rb2Cr(BrCl)2,-1.615510038
12619,PrBrO2,-2.331686102
12620,Tb2CBr,-0.979193973
12621,NdBrO2,-2.330393693
12622,EuBrO2,-1.649792292
12623,RbBr,-1.773135795
12624,InBr,-0.690476895
12625,PBr5,-0.342198257
12626,TlBr,-0.84052012
12627,2-Feb,-0.44087836
12628,YbBr2,-2.109353367
12629,CaBr2,-2.053829807
12630,RuBr3,-0.323473763
12631,CsBr,-1.7693663
12632,CuBr,-0.25428131
12633,NaBr,-1.586479907
12634,KInBr4,-1.19435741
12635,CsBrF,-1.980640239
12636,KBrO3,-1.063400537
12637,CsTiBr3,-1.406634974
12638,K2TeBr6,-1.048756167
12639,Li2FeBr4,-1.057999679
12640,SbSBr,-0.66983155
12641,PbBrCl,-1.233874326
12642,CrSBr,-0.98374813
12643,TiBrO,-2.371466094
12644,PbBrF,-1.831113452
12645,Ca2BrN,-1.513240573
12646,Cs3Mo2Br9,-1.150415191
12647,CsCu2Br3,-0.808559422
12648,K2ReBr6,-0.992398546
12649,LaBrO,-3.24916843
12650,SrBrF,-3.230747199
12651,K2SeBr6,-0.902670194
12652,CsVBr3,-1.273566696
12653,RbPb2Br5,-1.160932118
12654,CsMnBr3,-1.262992672
12655,Sr2BrN,-1.393172748
12656,CsLiBr2,-1.686725239
12657,NdBrO,-3.117901052
12658,Cs2Pd(IBr2)2,-0.962940967
12659,Sr2Cu3(BrO2)2,-1.700735653
12660,Sr5P3BrO12,-3.28829401
12661,ThBr4,-1.741922381
12662,PtBr3,-0.261524515
12663,NpBr3,-1.335157192
12664,Pr2Br5,-1.855405448
12665,HgBr,-0.427390607
12666,SnBr4,-0.694263098
12667,CuBr2,-0.311490617
12668,PrBr3,-1.915648719
12669,3-Feb,-0.350058861
12670,ZrBr3,-1.405509341
12671,KBr,-1.771393245
12672,UBr3,-1.274487691
12673,LiBr,-1.547402815
12674,LaBr3,-2.030709037
12675,HgBr2,-0.477399008
12676,BrF3,-1.2539412
12677,EuBr2,-2.034493702
12678,MoBr3,-0.57836789
12679,NaBrO3,-1.017347884
12680,KFeBr3,-0.949937815
12681,Hg2BrN,0.130785209
12682,Rb2CoBr4,-1.180540885
12683,CuW3Br7,-0.462220136
12684,GaSeBr7,-0.486744948
12685,Rb2TeBr6,-1.065327154
12686,TlBrO4,-0.503386777
12687,Cs2TeBr6,-1.114642791
12688,Cs4PbBr6,-1.607635763
12689,Cs3Cr2Br9,-1.289688582
12690,Sn3BrF5,-2.287403558
12691,Hg6Sb5Br7,-0.353315658
12692,PBr2N,-0.42021099
12693,CsSn2Br5,-1.074237799
12694,K2ZnBr4,-1.428880761
12695,NbSeBr3,-0.847613025
12696,InSn2Br5,-0.756737179
12697,KSn2Br5,-1.039963066
12698,Hg5(BrO2)2,-0.605905949
12699,KBrF4,-1.994186267
12700,Hg6S4Br3Cl,-0.568513948
12701,Hg6S4IBr2Cl,-0.530364358
12702,Na4Ga3Si3BrO12,-2.654803875
12703,NaH4BrO2,-1.418392349
12704,H4BrN,-0.71302015
12705,Sr7(H6Br)2,-0.872691341
12706,HgH12C2(Br2N3)2,-0.563899356
12707,H5BrNO,-0.834670104
12708,HBr,0.805385501
12709,LiH6BrO7,-1.143400216
12710,MgH12(BrO6)2,-1.263699616
12711,Rb2HBrO,-1.656938037
12712,CaH12(BrO3)2,-1.476253269
12713,CuH12Br4(NO)2,-0.821098421
12714,ScH3Br3N,-1.21820055
12715,CaHBr,-1.391256843
12716,SrHBr,-1.444838181
12717,SrH2Br2O7,-1.207418698
12718,CdH4(BrO4)2,-0.911727399
12719,K2HBrO,-1.679135327
12720,Sr2Co(BrO)2,-2.209806674
12721,Sr3Fe2Br2O5,-2.419795878
12722,MnH4(BrO)2,-1.267210471
12723,CoH4(BrO)2,-1.089689381
12724,CoH8(BrO2)2,-1.20062484
12725,FeH8(BrO2)2,-1.265798775
12726,K2PdBr4,-1.191104273
12727,UBr4,-1.325549554
12728,CsCrBr3,-1.144342646
12729,NdSBr,-2.238932625
12730,GdBr3,-1.919893795
12731,CsSnBr3,-1.2476994
12732,Ge(BrF5)2,-1.829941701
12733,K2PtBr4,-1.144004273
12734,LuSBr,-2.234766306
12735,PBr3,-0.391293068
12736,Rb2MnBr4,-1.36615919
12737,Tl4HgBr6,-0.764665409
12738,SbBrF8,-2.10237742
12739,Sb3(BrF8)2,-2.345942465
12740,Cs3MnBr5,-1.524119593
12741,CsCuBr3,-0.941229267
12742,S4(BrN)3,-0.121504794
12743,IrBr3,-0.297980885
12744,TlBr2,-0.660282255
12745,SbBr3,-0.613330035
12746,RbCdBr3,-1.259003368
12747,RbNiBr3,-0.927875425
12748,KBrO4,-0.855537532
12749,Tl3PbBr5,-0.902352701
12750,PaBr4,-1.440816834
12751,Li6Br3N,-1.071382588
12752,UBrO2,-3.043037187
12753,Ge19(PBr)4,-0.166534701
12754,TiBr4,-1.234975618
12755,NiBr2,-0.364417857
12756,IBr,-0.086550102
12757,CsBr3,-0.996392712
12758,PaBr5,-1.452506968
12759,Te2Br,-0.169495348
12760,CsI2Br,-0.939456681
12761,LaBr,-1.275921444
12762,PH4Br,-0.267297951
12763,K2PtBr6,-1.001213133
12764,Sb4Br2O5,-1.534433978
12765,InBrO,-1.513882039
12766,CsHgBr3,-1.002502276
12767,CrBr3,-0.80831177
12768,UBrN,-1.611763369
12769,W3Br8,-0.427442835
12770,Nb3Br8,-0.92946787
12771,CsReBr4,-0.856744527
12772,TiBr2,-1.069153172
12773,K2OsBr6,-0.893777824
12774,TiBrN,-1.5083917
12775,Hg3(TeBr)2,-0.343593165
12776,PdBr2,-0.342242909
12777,RhBr3,-0.451222251
12778,TbBr,-1.229802808
12779,CdBr2,-0.890467427
12780,PuBr3,-1.538626417
12781,NdBr3,-1.915919336
12782,SmBr3,-1.901214806
12783,PuBrO,-2.721242574
12784,BrF5,-1.346424349
12785,CBrN,0.366623175
12786,HgBrO3,-0.40756218
12787,Rb3Mn2Br7,-1.291756021
12788,H5BrO2,-1.159207138
12789,Sr5(Br4Cl)2,-2.296612998
12790,Mo2SBr2,-0.825421329
12791,NbTeBr3,-0.770610325
12792,Pb9(Br5O2)2,-1.169131147
12793,KTlBr4,-0.963127025
12794,ThBrN,-2.094793886
12795,PbBr2,-0.919459885
12796,Rb2PdBr6,-0.991166997
12797,SBr,-0.377840141
12798,C(Se2Br)2,0.138401271
12799,K3BrO,-1.485067956
12800,Th6CoBr15,-1.58577456
12801,Th6CBr14,-1.56681486
12802,TiBr3,-1.2279932
12803,TlCdBr3,-0.887685883
12804,Rb3Sb2Br9,-1.162514696
12805,RbLiBr2,-1.668203186
12806,Li2MnBr4,-1.235167979
12807,Cs2SbBr6,-1.166680928
12808,K2PrBr5,-1.880619416
12809,Nd3S2Br5,-2.089652736
12810,OsBr4,-0.117632991
12811,MnBr2,-0.81704657
12812,Rb4CdBr6,-1.545758744
12813,LiGaBr4,-1.102826026
12814,LiGaBr3,-1.102054137
12815,GaBr2,-0.780505906
12816,SBr2O,-0.785283693
12817,Br2O,-0.06870907
12818,WBr6,-0.483957489
12819,ZrBr2,-1.23960838
12820,Tl6SBr4,-0.797444848
12821,Gd2CBr,-0.948302595
12822,KInBr3,-1.217920565
12823,CrInBr3,-0.660345756
12824,CaInBr3,-1.517991386
12825,RbGeBr3,-1.104477821
12826,Rb4PbBr6,-1.563568572
12827,NaInBr4,-1.090147416
12828,La2Br5,-1.958429407
12829,LaBr2,-1.824945308
12830,RbBrF4,-1.901323791
12831,Rb3Ge2Br7,-1.21552866
12832,Li7Br3O2,-1.794108345
12833,Li3BrO,-1.8329453
12834,Na4Br2O,-1.548320262
12835,NbBr5,-0.875997429
12836,K4Br2O,-1.571377644
12837,CsBr2F,-1.502641374
12838,ZrTe2Br5,-0.937840423
12839,Zr2TeBr12,-1.070169706
12840,NaGaBr4,-1.131630475
12841,KGaBr4,-1.222828573
12842,CuSe3Br,-0.146019544
12843,Y4OsBr4,-1.294279973
12844,GdCBr,-1.088116658
12845,CBr3F,-0.368342434
12846,K2UBr5,-1.564587496
12847,Li2ZnBr4,-1.272362955
12848,Na2ZnBr4,-1.312485092
12849,RbBrO3,-1.067822371
12850,CsBrO3,-1.081372697
12851,Hg2P3Br,-0.142552463
12852,W3Br7,-0.454375902
12853,MnInBr3,-0.763415494
12854,Cd4P2Br3,-0.507880648
12855,Tl5Se2Br,-0.497367675
12856,DySBr,-2.254168475
12857,Br2O3,-0.208682769
12858,Pd(PbBr3)2,-0.725632233
12859,In7Br9,-0.729093605
12860,Li10BrN3,-0.626648202
12861,Li6MgBr8,-1.54140778
12862,Li2MgBr4,-1.533458495
12863,CaThBr6,-1.810679701
12864,SrThBr6,-1.852385597
12865,Li5Br2N,-1.026469185
12866,P3BrCl14,-1.020462108
12867,Cd(W3Br7)2,-0.552919986
12868,Nb3SBr7,-1.060188178
12869,La5C2Br9,-1.692434804
12870,Na3YBr6,-1.705384481
12871,Hg3(SBr)2,-0.510661171
12872,Hg3TeBr4,-0.424201832
12873,Se2Br3N,0.083601814
12874,Te4MoBr,-0.255208577
12875,La3Br6N,-2.03541147
12876,Mo3S3Br,-0.967624296
12877,InTeBr,-0.58699361
12878,Cd2P3Br,-0.312772431
12879,Te6Br2O11,-1.353135423
12880,UBr5,-1.248147044
12881,Cs3CoBr5,-1.357746852
12882,RbVBr3,-1.232263632
12883,SmBrO,-3.143502315
12884,Er5C2Br9,-1.58812835
12885,Ta3Br7,-0.899335105
12886,Rb3Nb2Br9,-1.295710979
12887,Pr5C2Br9,-1.581201652
12888,Na3ScBr6,-1.651060321
12889,TlFeBr4,-0.676147049
12890,Ta(TeBr3)2,-0.684106505
12891,LiDy2Br5,-1.44764952
12892,Rb3Mo2Br9,-1.109691705
12893,Rb2WBr6,-1.083555952
12894,MgInBr3,-1.173997834
12895,Pd(SeBr3)2,-0.235417816
12896,WBr2,-0.494884553
12897,BrNO3,-0.617920692
12898,WBr5,-0.472733861
12899,MoBr2,-0.687492486
12900,La6Si7Br3,-1.092071728
12901,CuSe2Br,-0.214166354
12902,CsBrO4,-0.876914593
12903,Ta3(Se4Br3)2,-0.703674607
12904,Re3(SBr)7,-0.634991164
12905,KMnBr3,-1.198739279
12906,K4MnBr6,-1.511893801
12907,La5Sb3Br,-1.247729181
12908,TeWBr9,-0.432917868
12909,TaTeBr9,-0.699032345
12910,CsMgBr3,-1.675284418
12911,RbMnBr3,-1.219871362
12912,GdBrO,-3.137224189
12913,TlBrO3,-0.655196185
12914,SnBr2,-0.781951612
12915,Ca3SiBr2,-1.12593619
12916,Pb7(BrF6)2,-2.443669525
12917,La3C2Br3,-1.304431834
12918,La3SiBr3,-1.527434715
12919,Rb4Br2O,-1.522498242
12920,Rb6Br4O,-1.625804642
12921,DyBr2,-1.464293149
12922,CoBr2,-0.289647145
12923,MgBr2,-1.514805078
12924,Rb3BrO,-1.409930342
12925,CsCaBr3,-2.000221018
12926,Cs2PtBr6,-1.068778926
12927,Rb3Os2Br9,-0.835574738
12928,La3GaBr3,-1.422887353
12929,Sb2BrF15,-2.194069729
12930,Tb5C2Br9,-1.607108413
12931,Tb3SiBr3,-1.407196758
12932,Tb4SiBr6,-1.622342046
12933,HfBrN,-1.827657584
12934,Ce4Ga5Br2,-0.874723805
12935,Ga2PdBr8,-0.715881548
12936,GaBr3,-0.839648491
12937,Tb6Br7,-1.299090883
12938,Tb5Br8,-1.507116558
12939,K2(NbBr3)3,-1.171123686
12940,Ta3SBr7,-1.000049884
12941,CuTe2Br,-0.201876832
12942,Hg3(SeBr)2,-0.363130834
12943,Tl2TeBr6,-0.63099974
12944,Tl3PdBr5,-0.704776526
12945,EuIBr,-1.813752757
12946,KPb2Br5,-1.152567016
12947,CrBrO,-1.631597049
12948,VBr2O,-1.343051058
12949,VBrO,-1.805120957
12950,WBr4O,-0.702241295
12951,SrBr2,-2.144389633
12952,BrO2F,-0.658133231
12953,Br3N,1.864457279
12954,Li3ErBr6,-1.686326259
12955,YCBr,-0.079786795
12956,ZrBr,-1.007935818
12957,EuBrO,-2.542801284
12958,TlFeBr3,-0.590350066
12959,SiBr2,-0.660069429
12960,Sr(BrO3)2,-1.166093279
12961,Sc7CBr12,-1.544230019
12962,Rb3ZnBr5,-1.518331477
12963,Mn15(Br3O10)2,-1.760695385
12964,NaH6BrO5,-1.248435175
12965,CdInBr3,-0.802284955
12966,Pb3(BrO)2,-1.326087349
12967,Gd2Br3N,-1.926695803
12968,PH8BrN4,-0.013609835
12969,ReH8(Br3N)2,-0.55407561
12970,In5Se5Br,-0.542394563
12971,In5S5Br,-0.866906584
12972,Pb2CBr2O3,-1.492837454
12973,TlW3Br7,-0.571531152
12974,KMo3Br7,-0.888269688
12975,Li2UBr6,-1.440506674
12976,KW3Br7,-0.733901675
12977,Hg7(Sb2Br3)2,-0.270458605
12978,Sr10P6BrO24F,-3.368931962
12979,PaBr3O,-2.242171338
12980,MnH8(BrO2)2,-1.303021917
12981,Ti7Br16,-1.151553527
12982,Cs2UBr6,-1.630188181
12983,Ge2S3Br2,-0.731146612
12984,Rb2SbBr6,-1.118562615
12985,Eu3BrO4,-2.880736887
12986,SeBr,-0.09361472
12987,FeTeBr7,-0.436372528
12988,CsBrF6,-1.897115453
12989,SbBr5F6,-1.503526416
12990,InGaBr4,-0.84107428
12991,CdH4Br3N,-0.756657916
12992,Hg7(P2Br3)2,-0.280935945
12993,GeBr2,-0.577892338
12994,Nb(SeBr)2,-0.762168705
12995,Nb3Tl2Br9,-0.9175568
12996,Cs2WBr6,-1.121933726
12997,Ta2Se17Br12,-0.382542123
12998,CsCdBr3,-1.291337755
12999,ZrBrN,-1.734606752
13000,UTe4Br5,-0.709814474
13001,CoH12(BrO3)2,-1.256069435
13002,Cu2Te2Br2O5,-1.05949956
13003,Ca2Cu(BrO)2,-2.119315893
13004,Ca3Cu2(BrO2)2,-2.132059939
13005,ScBrO,-3.029178754
13006,Sr2Cu(BrO)2,-2.14635939
13007,NbBr2O,-1.71476572
13008,YCu2Bi2(SeO2)2,-1.660455934
13009,NbTlBr4O,-1.338442347
13010,Sr2CuBrO2,-2.333577565
13011,MnSbS2Br,-0.761564251
13012,SnHg2(SBr)2,-0.562914212
13013,Br3N(O2F5)2,-1.141806822
13014,Pr6S4BrN3,-2.08167167
13015,TeBrO3F5,-1.579307112
13016,Cu6PS5Br,-0.493414771
13017,Sm4Br6O,-1.777439057
13018,MoSBr,-0.980839874
13019,CuHgSBr,-0.449904088
13020,BrN(OF2)2,-1.068980194
13021,Nd4(SBr2)3,-2.121306871
13022,RbSbBrF3,-2.441170216
13023,NbTe7Br5O,-0.598612428
13024,SbS(BrF2)3,-1.79431144
13025,VS2Br2N3,-0.455865043
13026,Sm3Si2S8Br,-1.851544136
13027,K2OsCBr5O,-1.053832678
13028,Sr4Br6O,-2.368441557
13029,NdTeBrO3,-2.248497009
13030,SiPb4(BrO)4,-1.700070833
13031,Cs5Nb2S4Br9,-1.476355712
13032,Ti4S8Br6O,-1.48847295
13033,Li4Ga3Si3BrO12,-2.705536408
13034,NaW2(Br3O)2,-1.036063566
13035,NdTe2BrO5,-2.072506967
13036,CuS4BrN4,-0.055232013
13037,Nb2Tl5S4Br9,-0.988540938
13038,KCBr(NO2)2,-0.811575202
13039,Zn2TeBr2O3,-1.383386351
13040,Sb8Br2O11,-1.649658788
13041,PBr3O,-0.943500127
13042,Nd6S4BrN3,-2.103188267
13043,Eu4Br6O,-2.274638531
13044,Rb3Nb6SBr17,-1.179781785
13045,Nd3Si2S8Br,-1.868277212
13046,PBrNF,-1.236107485
13047,CuSb2BrO3,-1.328326232
13048,CdSbS2Br,-0.777457038
13049,Ta4S9Br8,-1.113590193
13050,Sb2BrF17,-2.01760657
13051,InSb2S4Br,-0.758601422
13052,CS3(Br2N)2,-0.109674651
13053,TeC4(BrF3)2,-0.93747829
13054,V4S9Br4,-1.096549259
13055,La6S4BrN3,-2.229337258
13056,Y3BrO4,-3.675419396
13057,TlPb8Br9O4,-1.18980843
13058,K2RuBr5NO,-1.064901892
13059,Ta2Te4Br10O,-0.870480929
13060,Pr3Si2S8Br,-1.876869541
13061,La3Si2S8Br,-1.968266925
13062,LaPb6BrO7,-1.860837255
13063,Sb2IBr2F11,-2.161987752
13064,SbSe(BrF2)3,-1.789665663
13065,K3Hg3S2Br5O6,-1.490305681
13066,CoSb2Br2O3,-1.352586735
13067,WSBr4,-0.616653619
13068,Ni5Se4(BrO6)2,-1.052368421
13069,Cr4Si2Br2O7,-2.276189333
13070,K3Mo2BrO7,-2.134436956
13071,Sr2FeBrO3,-2.5518497
13072,FeTe2BrO5,-1.46235167
13073,Cr2PBrO4,-2.18886245
13074,Ga(SbBr)4,-0.450047523
13075,Dy5C2Br9,-1.602845407
13076,MnSbSe2Br,-0.458708316
13077,Rb2Hg2PdBr8,-0.867918939
13078,CdSb2Se3Br2,-0.497253528
13079,Rb2UBr6,-1.575246794
13080,GeBr4,-0.63729434
13081,CrBr2,-0.64643944
13082,Rb2LiDyBr6,-1.804402326
13083,RbCu2Br3,-0.786662346
13084,KTiBr3,-1.352618944
13085,CuHgSeBr,-0.283813263
13086,Nb3Se10Br3,-0.648347285
13087,La9Sb16Br3,-1.073663766
13088,RbSn2Br5,-1.053780043
13089,Rb2Pd(IBr2)2,-0.92160209
13090,YbCsBr3,-2.040439844
13091,Pr2CBr,-0.878568671
13092,InBr2,-0.813149113
13093,Pd(Se3Br)2,-0.141341221
13094,H8C2BrN,-0.464350634
13095,TlSn2Br5,-0.812632152
13096,TlH12C4Br4N5,-0.434859636
13097,K2PtC4(BrN2)2,-0.316077887
13098,K2SnBr6,-1.185668372
13099,La3CBr5,-1.663743019
13100,In5Br7,-0.749721393
13101,Nb2Br5,-0.838848174
13102,In4Br7,-0.776798842
13103,Na2UBr6,-1.447611681
13104,TcBr3,-0.390439103
13105,CuTeBr,-0.229721945
13106,TaBr5,-0.949164764
13107,CsReBrCl3,-1.3696333
13108,Eu2LiCBr3N2,-1.494617288
13109,Cs3Y2Br9,-1.923254022
13110,Rb2SnBr6,-1.223147939
13111,Ce4C4Br3,-0.94223342
13112,TlGaBr4,-0.914627954
13113,La5Sn3Br,-0.981911649
13114,Rb2CuBr3,-1.274918871
13115,Sr2LiCBr3N2,-1.551474587
13116,RbTiBr3,-1.371098546
13117,Te2PdBr6,-0.385418228
13118,CeBr3,-1.8417664
13119,CsNb4Br11,-1.031506295
13120,La4C2Br5,-1.475883187
13121,Ce3GaBr3,-1.192868098
13122,CsEr(NbBr3)6,-1.146681876
13123,ZnBr2,-0.825398167
13124,Tb10Rb2C4Br19,-1.627724828
13125,ZrHg3(SeBr3)2,-0.796839259
13126,K3Mo2Br9,-1.087429545
13127,Hg2TeBr3,-0.399850116
13128,SnHg7(P2Br3)2,-0.337179455
13129,Rb2ZnBr4,-1.441455419
13130,HgIBr,-0.385461377
13131,Ga2Te2Br7,-0.672640723
13132,InBr3,-0.853033609
13133,CsGeBr3,-1.126335129
13134,SiBr4,-0.837964068
13135,La7Sb11Br4,-1.199328178
13136,InSb2Se4Br,-0.421157887
13137,TcBr4,-0.404361153
13138,Nd4Br9,-1.62694851
13139,Ce2Br3N,-1.827471276
13140,Pr6RuBr10,-1.605351911
13141,SbI3(BrCl3)2,-0.684113377
13142,Pr6CoBr10,-1.587054259
13143,La2PBr2,-1.856326777
13144,CsEr(TaBr3)6,-1.133049999
13145,Hg3Te2IBr,-0.286829117
13146,CuMo3Br7,-0.620445456
13147,Cs2Li3Br5,-1.656805501
13148,YbRbBr3,-2.00995355
13149,Ce10Ga5Br4,-0.76135725
13150,K2CuBr3,-1.269242347
13151,PbIBr,-0.768983687
13152,Cs2NaYBr6,-1.859774576
13153,Rb2PtC4(BrN2)2,-0.322986479