id,Composition,FormationEnergy
33447,GdMnGe,-0.278589842
33448,Mn5Ge3,-0.099052153
33449,U5Ge3,-0.035961122
33450,GdSi2Rh3,-1.022255801
33451,GdInRh,-0.746878826
33452,GdInPd2,-0.782043761
33453,LiGa(SiO3)2,-2.90469288
33454,Ge3Rh5,-0.471307895
33455,LiGd(PO3)4,-2.936952375
33456,GdHO2,-2.982130448
33457,Ga2WSe,0.759789978
33458,Mn5Ge2,-0.01734719
33459,Ga2Ge4Pb3O14,-2.019902316
33460,Gd3InN,-1.013969423
33461,Sc9Ni5Ge8,-0.766324581
33462,LuNiGe2,-0.653324908
33463,Gd2In,-0.382080872
33464,Gd2InGe2,-0.710984162
33465,GdMn12,0.018072328
33466,K4In3Ge20,-0.130348724
33467,Gd2Mo2O7,-2.947702687
33468,Mg3Ge,-0.078180637
33469,Na5Gd(MoO4)4,-2.394918339
33470,Pr3(Ge3Pt2)2,-0.915748963
33471,Gd10S19,-2.234139584
33472,Yb4LiGe4,-0.578022517
33473,Gd(NiGe)2,-0.683812205
33474,GdRu2,-0.237130355
33475,Gd3P4Pd7,-0.990828458
33476,Gd3S3N,-2.310878748
33477,La6Ge11,-0.733915192
33478,GdGaGe2O7,-2.602069537
33479,La3GaGe5O16,-2.751786825
33480,Mn11Ge8,-0.095533819
33481,NdGe,-0.849434057
33482,Gd2Se2O,-2.607493094
33483,Gd2Ni7,-0.366958661
33484,Gd(PRu)2,-1.03563211
33485,Gd3Se4,-1.851436458
33486,VGe3,0.216357443
33487,Hf2Nb3Ge4,-0.623543725
33488,Gd5(RuO7)2,-2.770433573
33489,Gd2MnS4,-1.937033763
33490,Na3GdI6,-1.339135114
33491,Yb(GdS2)2,-2.501992498
33492,Gd8Zr7O26,-3.762781044
33493,Y2GeI2,-1.241641327
33494,Sm(GdS2)2,-2.414034861
33495,Gd2PbS4,-1.962857909
33496,SrLa11Mg3Ga9O34,-3.117940088
33497,SrLa9MgGa9O29,-3.082545899
33498,La3Ga5SnO14,-2.848494562
33499,Ge4Se9,-0.241956552
33500,K2Na2Gd4Nb2O13,-3.218971806
33501,V17Ge31,-0.198606551
33502,K3GdSi2O7,-3.075110609
33503,K3Ga2(PO4)3,-2.65026951
33504,GdP5,-0.535865202
33505,NaGa(SiO3)2,-2.876212481
33506,Ge9(Sb5Te12)2,-0.000132191
33507,Gd7Ti8O26,-3.66574457
33508,Yb7Mg3Ge8,-0.406464554
33509,Gd3NbO7,-3.592065928
33510,Yb15Mg5Ge16,-0.591725324
33511,Na6Ga5Si7H15O32,-2.161981343
33512,Sr2La14Mg4(Ga4O15)3,-3.098395745
33513,Sr2La14Mg2Ga14O45,-3.040494102
33514,ZnGaP2H4NO8,-1.96681468
33515,Zn2GaP3H8(NO6)2,-1.689439902
33516,Ge(WO3)6,-2.09693598
33517,Na4Ga3Si3NO14,-2.112687916
33518,La10Mg(Ga3O10)3,-3.10861371
33519,La16Mg2Ga14O47,-3.134701975
33520,V4Ge13O36,-1.999795339
33521,ThGeS,-1.630992166
33522,LaGaS2O,-2.301153474
33523,GdMn2O5,-2.630214805
33524,Gd2Mo5O18,-2.480879561
33525,Gd4Mo7O27,-2.61928662
33526,RbGdS2,-2.179590841
33527,Ga2P2H9NO11,-1.787138747
33528,NaGa(H2N)4,-0.549233513
33529,ScNiGe,-0.819329961
33530,NaGdRe4(H2O5)4,-2.061174768
33531,Ga2P3H11O13,-1.78699047
33532,Na3GaP2H2O9,-2.397748597
33533,GdH18(IO3)3,-1.402908144
33534,Sr(ZnGe)2,-0.36271535
33535,Hf5Ge4,-0.706986047
33536,Gd3YO6,-3.90685496
33537,Gd5Y3O12,-3.933419602
33538,Rb2Ga2Ge3O10,-2.144929325
33539,GdIO,-2.448740951
33540,Gd2HfO5,-3.949835365
33541,GeP3,0.023112496
33542,GdYO2,-3.215817536
33543,Ge11N11O5,-0.636510184
33544,Tl2Ge2O7,-1.641976958
33545,Lu2GeO5,-3.336488188
33546,Gd3SbO7,-3.373499385
33547,HoGaO3,-3.156831975
33548,TaGe2,-0.223506799
33549,Na5GdO4,-2.067989089
33550,GdTmO3,-3.936982408
33551,Gd2HgO4,-2.989724802
33552,TbGdO3,-3.856181672
33553,TbGaO3,-3.14344121
33554,GdLuO3,-3.964575221
33555,Gd3InO6,-3.381085432
33556,Tm2GeO5,-3.317041556
33557,KGdO2,-3.053338642
33558,Gd3Y5O12,-3.954329448
33559,Ga2P3H12(NO4)3,-1.727476054
33560,GeP,0.056661303
33561,NaGa3P2(HO3)4,-2.220502197
33562,V2Ge2O7,-2.269541747
33563,Mn3Ga4P6(H2O5)6,-2.182732195
33564,Li2VGa3O8,-2.3071461
33565,Gd3Y13O24,-3.97011384
33566,Yb3Ge5,-0.574882321
33567,Li2Mn3GaO8,-2.107491749
33568,Y2GeO5,-3.349502744
33569,Sn2Ge2O7,-1.985417835
33570,Ga10Si2O19,-2.403488598
33571,SnGeO3,-1.921943054
33572,Y4Ga2O9,-3.426585391
33573,GdTa3O9,-3.49866712
33574,Gd6WO12,-3.622724705
33575,Gd3TaO7,-3.812806248
33576,Gd2V2O7,-3.147551146
33577,La4Ga2O9,-3.425007432
33578,VGeO3,-2.149836859
33579,GdTa7O19,-3.437186091
33580,GeWO4,-1.868689587
33581,LiVGaO4,-2.388646688
33582,Gd2W2O9,-2.877255349
33583,Li2VGaO4,-2.399611129
33584,Gd2P4O13,-3.135106544
33585,Gd2W4O15,-2.593094633
33586,La2Ga4O9,-2.778321404
33587,Li4VGa3O8,-2.376504669
33588,Rb2Ge2O5,-2.11677165
33589,Gd2(WO4)3,-2.721399526
33590,V(GeO3)2,-2.173691115
33591,Li16V3Ga13O32,-2.379356445
33592,MgGeN2,-0.771581476
33593,Na8Gd2O7,-2.138700312
33594,La3Ga5O12,-2.939367741
33595,Gd2Nb2N2O5,-2.82871734
33596,GdO,-3.034313838
33597,HfGeSe,-0.937841456
33598,HfGeS,-1.277342125
33599,RbGdO2,-2.991179117
33600,NaGdS2,-2.167233262
33601,LiPrGe,-0.675665395
33602,YbLiGe,-0.482435124
33603,LiGe,-0.277095202
33604,LiGeIr2,-0.394849121
33605,Pm2LiGe,-0.422663313
33606,Pm3Ge,-0.323557319
33607,LiGd2Ir,-0.495973607
33608,RbGe3,-0.000917916
33609,PaGe3,-0.459768986
33610,Pa3Ge,-0.300821081
33611,TaMn2Ge,-0.195305474
33612,RbVGa(PO5)2,-2.383603933
33613,Pm2HgGe,-0.575291208
33614,Gd2MgIn,-0.328722341
33615,MnGaPt2,-0.485216049
33616,Gd2Mg,-0.040897078
33617,Lu2MgGe2,-0.710783632
33618,MgGeRh2,-0.62863774
33619,Gd2MgTl,-0.254310879
33620,Li2GdTl,-0.227471189
33621,Tm2MgGe2,-0.737884463
33622,Gd2IrRh,-0.776472062
33623,Li2GdIn,-0.291337451
33624,YbGdRh2,-0.747066161
33625,GdMgZn2,-0.32228903
33626,Gd2IrPd,-0.820736445
33627,YbGdHg2,-0.566175851
33628,Gd2RuPd,-0.568067919
33629,LiGd2Ru,-0.218510076
33630,GdMgRh2,-0.661079002
33631,GdSnRh2,-0.726480131
33632,Gd2ZnRu,-0.308384224
33633,Pr4Ge7,-0.724255985
33634,Sr2GaGeN,-0.741440874
33635,Li3Ge,-0.327241031
33636,Nb3GeS6,-1.379572665
33637,KNaGdTaO5,-3.135906921
33638,Sm2MgGe2,-0.774900852
33639,LiGdHg2,-0.425974981
33640,V4GeS8,-1.247777314
33641,V4GeSe8,-0.657724246
33642,LiGaGeO4,-2.284660423
33643,GdN,-1.758602364
33644,TiGePt,-0.407943044
33645,HfGePt,-0.393109803
33646,HfNiGe,0.058334597
33647,TiNiGe,-0.012713591
33648,NbGeRh,0.009126102
33649,TaGeRh,0.026625822
33650,K2NaGaP2,-0.461660743
33651,Tm3(GePd)4,-0.89538058
33652,Ge3N2,-3.55E-05
33653,ZnGe3,0.271754039
33654,Zn3Ge,0.137015714
33655,YbGe3,-0.349968455
33656,TcGe3,0.401779687
33657,U3Ge,-0.154362765
33658,SmGe,-0.865418852
33659,Si3Ge,0.538603511
33660,Ge3P,0.431542322
33661,Li2MgGe,-0.28127494
33662,Ge3Rh,0.097869986
33663,LuGe2,-0.57566298
33664,In3Ge,0.118645524
33665,Re3Ge,0.38446528
33666,Rb3Ge,0.184655379
33667,RbGdO3,-2.322597168
33668,InGe3,0.297222451
33669,ThGeO4,-3.251071957
33670,Pr2Ge5Rh3,-0.821122082
33671,PrNiGe2,-0.745428286
33672,NdGe3,-0.380456427
33673,Ge3Te,0.355413896
33674,PrGe3,-0.372411589
33675,Ge3Sb,0.330033429
33676,Hf3Ge2,-0.699552965
33677,Ge3Rh2Se3,-0.508959019
33678,GdMn3,0.38102203
33679,NiGe3,0.259578954
33680,GdMgNi4,-0.374101653
33681,NbTc2Ge,-0.254905484
33682,PrVGe3,-0.504776629
33683,K3Gd(PO4)2,-2.988081905
33684,SiGe,0.039465612
33685,SrGaGeH,-0.515837832
33686,SrGaSnH,-0.488079531
33687,Sr(GeIr)2,-0.642212072
33688,SmGe3,-0.38884488
33689,SrGaSiH,-0.450099411
33690,SnGe3,0.293712919
33691,Rb2GeSe3,-0.881640238
33692,TmGePd,-0.979982702
33693,SmNiGe2,-0.732836536
33694,Tl3Ge,0.166179631
33695,PrGe5,-0.255097076
33696,Ge2O3,-1.502996659
33697,PmLi2Ge,-0.378506621
33698,GeSb,0.143156562
33699,Hf2Ge,-0.653635838
33700,MnNbGe,-0.316497977
33701,SnGe,0.489145708
33702,YGe,-0.89390308
33703,TmGe,-0.83805724
33704,Ti3Ge,-0.268986581
33705,Sc2MnGe,-0.187490059
33706,Ho11Ge10,-0.842103185
33707,NaGdSe2,-1.705013139
33708,Sr2YTi2GaO7,-3.052486831
33709,Sr2YGaSn2O7,-2.511297906
33710,Sr2Ti2GaO7,-2.99325321
33711,Sr2GaSb2O7,-2.367899962
33712,Sr2GaSn2O7,-2.387191014
33713,Sr2YGaNi2O7,-2.38123785
33714,Sr2GaMo2O7,-2.270854353
33715,Sr2YV2GaO7,-2.743883181
33716,Sr2GaW2O7,-2.298206205
33717,Sr2YGaW2O7,-2.354820314
33718,Sr2V2GaO7,-2.564788614
33719,Ge3(TeO6)2,-1.671607921
33720,Ge3(WO6)2,-2.035457415
33721,Ge3(MoO6)2,-1.927228363
33722,Sr2YMn2GaO7,-2.736953368
33723,Sr2Mn2GaO7,-2.302041613
33724,Ti(GeO3)2,-2.538400238
33725,Sn(GeO3)2,-2.061317264
33726,Ge2SbO6,-1.915463564
33727,Ge2MoO6,-2.04890451
33728,Ge2WO6,-2.016147862
33729,Ni(GeO3)2,-1.41620349
33730,Mn(GeO3)2,-1.898235737
33731,Sr2GaNi2O7,-1.664943899
33732,H2,4.44E-16
33733,VH,-0.232251359
33734,HPbI3,0.230586338
33735,SmGe2Pt,-0.896504932
33736,KNaH2,-0.213135573
33737,HW,0.081550896
33738,TbTiGe,-0.666664903
33739,ThH2,-0.568639449
33740,MgNiH,-0.243511128
33741,MgH2,-0.169872854
33742,NaH,-0.108375927
33743,Na3Ti2(GeO4)3,-2.490687075
33744,Na3V2(GeO4)3,-2.220026151
33745,Li3Ti2(GeO4)3,-2.496619973
33746,Li3Ge3(MoO6)2,-2.129236661
33747,Li3Ni2(GeO4)3,-1.553343817
33748,Na3Ge3(MoO6)2,-2.109897204
33749,Na3Ni2(GeO4)3,-1.50889966
33750,Na3Mn2(GeO4)3,-1.96147904
33751,Li3V2(GeO4)3,-2.233367069
33752,MgGeO3,-2.064179667
33753,ZnGeO3,-1.423683982
33754,SrGeO3,-2.610014124
33755,HgGeO3,-1.190116306
33756,MgNiH2,-0.251051308
33757,GePbO3,-1.729288182
33758,KMgH3,0.703213272
33759,MgNiH3,-0.24663684
33760,Ti2MnGe,-0.242081407
33761,LiHPd,-0.454919893
33762,LaH3,-0.683424371
33763,YbH3Pd,-0.657159747
33764,YbNiH3,-0.652468639
33765,HfVGe,-0.622403552
33766,LaGe2Ir3,-0.665444976
33767,NbGeSb,-0.328271498
33768,SmGeRu,-0.684096897
33769,Sr2H3I,-0.925013171
33770,Th2HN3,-1.517397176
33771,K2Ge(S2O7)3,-2.032173623
33772,Li2Ge4O9,-2.192288623
33773,LiGe2N3,-0.520379698
33774,Na2Ge(S2O7)3,-2.012933234
33775,SrGe(PO4)2,-2.812842702
33776,Si(GeN2)2,-0.406026886
33777,SiGeN2O,-1.367359605
33778,Sr2Ge(S2O7)4,-2.181590963
33779,Rb2Ge(S2O7)3,-2.03671915
33780,Y2GeRh3,-0.882770468
33781,LiGe2(PO4)3,-2.496088096
33782,NaGe2(PO4)3,-2.493472689
33783,Na2H6Ir,-0.183561834
33784,PrHSe,-1.474599904
33785,TmSnGe,-0.577575018
33786,Li2NdGe,-0.348320291
33787,Ho2Ge2Rh,-0.943473393
33788,ZrVGe,-0.663088545
33789,Na2GeTeO6,-1.967462932
33790,SrGeTeO6,-2.291006107
33791,Si3H,0.009861962
33792,Sr(GeRh)2,-0.790907476
33793,Ho2Ge6Pd,-0.496725839
33794,Yb5(LiGe)4,-0.500173912
33795,LuGeIr,-0.946891241
33796,K2Hg3(GeS4)2,-0.887266825
33797,La2MgGeO6,-3.277685613
33798,KSmGeSe4,-1.139785442
33799,Rb2GeS3,-1.285061525
33800,Sm2(Zn2Ge)3,-0.404218354
33801,TbKGeS4,-1.638110656
33802,KPrGeSe4,-1.147724357
33803,Li2SnGe,-0.153835414
33804,Tl2Ge2S5,-0.775481503
33805,Ho2InGe2,-0.69302458
33806,SrNi3Ge2,-0.452269145
33807,Ho2NiGe6,-0.510190774
33808,LaGe3Rh,-0.769800834
33809,Li2TiGeO5,-2.729840089
33810,Lu(MnGe)2,-0.446083407
33811,Ho4In(NiGe2)2,-0.780864818
33812,Tm4In(NiGe2)2,-0.766714284
33813,SrNiGe2,-0.522323628
33814,Na2ZnGe,-0.148512146
33815,ZrGeTe4,-0.516379628
33816,LuGePt,-1.122602489
33817,HfGeTe,-0.667652482
33818,Hg2GeO4,-1.288756901
33819,Na2TiZn2GeO7,-2.378481599
33820,LiYGe,-0.733484019
33821,Tl2GeSe3,-0.378760347
33822,Pr3GePO9,-3.352629619
33823,KGeSbO5,-2.131898321
33824,KTaGeO5,-2.771559871
33825,KGePO5,-2.48869571
33826,Rb7NaGe8,-0.211983656
33827,K4GeO4,-1.977789242
33828,K3GeS3,-1.327302668
33829,K3GeSe3,-1.001073199
33830,Na4Hf2(GeO4)3,-2.701826874
33831,Tb2Ge2O7,-3.073172659
33832,Tm2Ge2O7,-3.102432846
33833,La3(GeRh)4,-0.9349008
33834,Sr3Y2(GeO4)3,-3.094844556
33835,Li2GeO3,-2.335053852
33836,SrMgGe,-0.541945208
33837,LiHoGe,-0.714445151
33838,LiNdGe,-0.685872252
33839,LiSmGe,-0.701133314
33840,Ho2Ge2Os,-0.69734325
33841,RbNa2Ge17,-0.071317996
33842,Lu4Zn5Ge6,-0.490350317
33843,Zn3Ni2Ge,-0.22232127
33844,Li2HgGe,-0.271623844
33845,LiInGe,-0.243792955
33846,ZnNi2Ge,-0.229407426
33847,Np(GeRh)2,-0.539292535
33848,K2ZrGe2O7,-2.621694634
33849,TbNaGeO4,-2.887179938
33850,LaTm(Ge2Ir)2,-0.824917103
33851,TiTl2(GeO3)3,-2.195533223
33852,NaNbGeO5,-2.597204508
33853,Tl4GeS4,-0.709823442
33854,Tl3GeTe3,-0.255068631
33855,K2Hg3(GeSe4)2,-0.508239925
33856,Sr2ZnGe2O7,-2.616862027
33857,NaYGeO4,-2.880115251
33858,Ho2Ge5Rh3,-0.776135774
33859,Sm(NiGe)3,-0.537258807
33860,Ge3Sb2O9,-1.996304929
33861,HfGePd,-0.830904519
33862,HoGe2Ir,-0.791458244
33863,LiInGeO4,-2.192536467
33864,KLi3GeO4,-2.249962037
33865,Ge5P6O25,-2.435853066
33866,La2Ge5Rh3,-0.850856137
33867,Na6Ge2Se7,-0.849484509
33868,Sr2Ge2Se5,-1.067278027
33869,KGe2(PO4)3,-2.50022092
33870,Pr2(ZnGe2)3,-0.407060724
33871,NaHoGeO4,-2.900035405
33872,K2Si6GeO15,-3.025840346
33873,NaTmGeO4,-2.915362861
33874,TbGe2Ir,-0.80669581
33875,Li2VGeO5,-2.390338861
33876,Sr(GeRu)2,-0.503759076
33877,Tb2Ge2Ru,-0.799311699
33878,U(GePt)2,-0.445524199
33879,Li2GePbS4,-1.147632138
33880,LaGeRu,-0.702510814
33881,La(GeRu)2,-0.691107763
33882,Sc(MnGe)6,-0.321071502
33883,LuTiGe,-0.699920749
33884,La(NiGe)2,-0.694678555
33885,TbGe2Pt,-0.879621714
33886,ZrMnGe,-0.56856127
33887,LaTiGe3,-0.718535254
33888,SrMnGe,-0.272049879
33889,LaMnGe,-0.442227351
33890,UGeIr,-0.573137904
33891,Mn4Ge6Ir7,-0.212795337
33892,SmGePt,-1.095726108
33893,Pr(MnGe)2,-0.452348957
33894,Yb2InGe2,-0.59606731
33895,LuGeRh,-0.9983509
33896,La2(Zn2Ge)3,-0.453516403
33897,MnGeN2,-0.234954181
33898,LaTiGe,-0.61915732
33899,GePtSe,-0.556246329
33900,TmGeRu,-0.737281628
33901,LaGe3Ir,-0.727409688
33902,Y(GeRu)2,-0.653011844
33903,La(GePd)2,-0.861627494
33904,NdGeRh,-0.895774762
33905,La(GePt)2,-0.880041919
33906,HoGeIr,-0.934262304
33907,LaNiGe2,-0.777141303
33908,Tb(GeRu)2,-0.657146261
33909,KLaGeSe4,-1.201438815
33910,Sr(MnGe)2,-0.295076061
33911,U(GeRh)2,-0.544765761
33912,Np(MnGe)2,-0.033171145
33913,TbMnGe,-0.487960217
33914,TmNiGe,-0.812783627
33915,NdGeRu,-0.66823349
33916,Sm(GeRu)2,-0.662418904
33917,La2InGe2,-0.77544556
33918,TbGeRu,-0.716562186
33919,Yb(GeRu)2,-0.593574334
33920,HoMnGe,-0.496285892
33921,TbNiGe,-0.790315896
33922,PrTiGe,-0.616270519
33923,La2Ge2O7,-3.056070477
33924,Tb2Ti3Ge4,-0.796290397
33925,Mg6Ni16Ge7,-0.382917594
33926,Lu3Ge13Rh4,-0.50690454
33927,YNi5Ge3,-0.535969091
33928,U2Nb3Ge4,-0.429148729
33929,Ho5(Ge5Rh2)2,-0.803270015
33930,Tb(MnGe)6,-0.17358852
33931,Hf(MnGe)6,-0.145274955
33932,HoGeRu,-0.728742108
33933,Sm2Ge2Ru,-0.763486426
33934,LuGeRu,-0.738455835
33935,Zr(MnGe)6,-0.306978496
33936,HoTiGe,-0.694034337
33937,Yb2Ge2O7,-2.507371019
33938,Sm3(Ge2Ru)2,-0.742754871
33939,In6Ge2PtO9,-1.779398738
33940,Y(MnGe)6,-0.317643177
33941,NbGeIr,-0.514770051
33942,TbGePt,-1.134026037
33943,Nd(GeRu)2,-0.661281027
33944,Tb(MnGe)2,-0.482548192
33945,HoGeRh,-0.993312667
33946,La3(GePd)4,-0.925153309
33947,TbGeIr,-0.919016146
33948,La(MnGe)2,-0.45844459
33949,TbGeRh,-0.967474763
33950,LaNi5H7,-0.309615223
33951,PuH3,-0.438155659
33952,LiH2N,-0.672458014
33953,LiH,-0.482754539
33954,YH3,-0.709933993
33955,SrH2,-0.637124396
33956,NaMgH3,-0.294935911
33957,LiMgH3,-0.351813535
33958,RbMgH3,-0.321864885
33959,SiH4,-0.106577719
33960,NaH2N,-0.52788999
33961,SrGe(HO2)2,-2.242474644
33962,NaHO,-1.612379275
33963,PH3O4,-1.950196405
33964,HN,-0.326840153
33965,H2O2,-0.921703624
33966,Rb3MgH5,-0.279767356
33967,Na2H2Pd,-0.326500877
33968,K2MgH4,-0.336949436
33969,HIO3,-0.940737322
33970,HoHSe,-1.483869092
33971,Si3H9N,-0.249881753
33972,H2O,-1.365761806
33973,Ho(HO)3,-2.323115242
33974,Y(HO)3,-2.304973216
33975,Ta2H,-0.201900323
33976,KH,-0.270691074
33977,PrH2,-0.707710899
33978,NdH2,-0.723504317
33979,Tb(HO)3,-2.320805472
33980,HoH2,-0.788752819
33981,LaH2,-0.730224465
33982,NbH2,-0.316638029
33983,ZrH2,-0.644965036
33984,TiH2,-0.582887731
33985,NaH3O2,-1.527857154
33986,H2S,0.502609066
33987,Th4H15,-0.5825735
33988,SrHI,-1.228979506
33989,ScH2,-0.767766566
33990,NpH2,-0.21471695
33991,LuH2,-0.776645222
33992,HPd,-0.141958869
33993,Sr2H6Ru,-0.685658174
33994,Sr(H9O5)2,-1.525789128
33995,Sm5Sb3H,-0.941973074
33996,K3GeH3S3O2,-1.440332684
33997,Mg(H2N)2,-0.727273877
33998,PH4I,-0.19029768
33999,MnH,0.166839115
34000,MoH,0.408301738
34001,SrLiH3,-0.117451397
34002,H2Se,0.696908441
34003,Si2H2O3,-2.129391911
34004,YH2,-0.797170899
34005,SmH2,-0.749554166
34006,UH3,-0.36883151
34007,NiH,-0.112655864
34008,PuH2,-0.425249018
34009,RbH,-0.231266414
34010,HRh,-0.022761654
34011,TaH2,-0.193073926
34012,TbH2,-0.785014631
34013,Th(TiH3)2,-0.437362394
34014,TmH2,-0.785757831
34015,VH2,-0.306541522
34016,Na3H6Rh,-0.415596049
34017,Mn2GeO4,-2.067285745
34018,Mn(HO)2,-1.629788398
34019,Li3V2(GeO5)2,-2.306451634
34020,Sr2MnGe2O7,-2.642827206
34021,P2H8O9,-1.860113989
34022,Mg14Ge5O24,-2.814002879
34023,K3GeTe3,-0.807642905
34024,Sc2GeO5,-3.321751536
34025,HfH2,-0.582885954
34026,H5IO6,-1.07873281
34027,Li4H5Rh,-0.427040268
34028,Li4H4Rh,-0.476757863
34029,Zn2Ge3O8,-2.030860463
34030,Zr3GeO8,-3.404257435
34031,Li6Ge2O7,-2.316343983
34032,Li4Ge9O20,-2.174942509
34033,LiGeTe2,-0.415677813
34034,Si2H2S3,-0.764345675
34035,LaHO,-2.515347607
34036,H4I3N,-0.476359153
34037,Na4GeSe4,-0.893028523
34038,Nd2GeO5,-2.866884932
34039,LuMnGe2,-0.506943735
34040,SiH3I,-0.19163883
34041,Li8GeO6,-2.213610899
34042,Li4Ge5O12,-2.238318335
34043,Tl2GeTe5,-0.152833846
34044,YHSe,-1.487371486
34045,Tb(GeRh)2,-0.895253735
34046,GeP2O7,-2.499280413
34047,PH4N3,-0.598507111
34048,K2GeSe4,-0.757556805
34049,Tl2GeTe3,-0.210562191
34050,Nb2GeTe4,-0.474994803
34051,Ho3Ge3Ir2,-0.926035649
34052,Ho5(Ge5Ir2)2,-0.496561118
34053,H3N,-0.541612218
34054,Ge3PbO7,-2.032606464
34055,Si2H6S,-0.281927671
34056,Si2H6Se,-0.170406678
34057,K2Ge2Se5,-0.700068009
34058,LiGePd2,-0.612504944
34059,Na4GeO4,-2.033690095
34060,Lu3Ni2Ge3,-0.817506882
34061,ZnGeN2,-0.381299079
34062,Sc(NiGe)6,-0.406087755
34063,SiH,-0.041581579
34064,K2ReH9,-0.37795913
34065,Mn4Nb7Ge8,-0.313793518
34066,Zn6Ni7Ge2,-0.22968669
34067,Li2GePd,-0.406019711
34068,ThZr2H7,-0.542614848
34069,Th(GeRh)2,-0.876314656
34070,Ho4Ge9Ir13,-0.650905262
34071,Ho3Ge3Ru2,-0.782997344
34072,Li4GeS4,-1.359270475
34073,Sr2GeSe4,-1.305639425
34074,Mg2GeO4,-2.746460609
34075,TlGeS2,-0.725395474
34076,Sr3GeO,-1.568196854
34077,K4Ge9O20,-2.198183807
34078,Te(HO)6,-1.389808005
34079,Li4ZrGe2,-0.061179607
34080,ZrGe2Rh,-0.722916289
34081,UGeTe,-0.497322375
34082,TbGe2Pd,-0.775164623
34083,Sm(GePd)2,-0.829655744
34084,Na4Ge9O20,-2.171391734
34085,Hg2GeSe4,-0.236636723
34086,Sr(NiGe)2,-0.51313031
34087,ZrGeTe,-0.786055723
34088,Li2NiGe3O8,-2.087822084
34089,V(HO)2,-1.613885443
34090,Tb4H9,-0.7599098
34091,Y10H21,-0.78557567
34092,H11O8,-1.130399131
34093,Yb(GePd)2,-0.764544002
34094,Sc2H5,-0.588976119
34095,Tb(NiGe)2,-0.697929829
34096,Ho3(GePd)4,-0.907539057
34097,TaHO3,-2.699523023
34098,H4IN,-0.617631668
34099,MgGeP2,-0.31252417
34100,Sr2H5Rh,-0.652695515
34101,PHN2,-0.601166703
34102,Zn2GeSe4,-0.509273677
34103,Tm(MnGe)2,-0.462140242
34104,Na2GeS3,-1.178172349
34105,TbNiGe2,-0.713074648
34106,Ho(NiGe)2,-0.684194734
34107,TbScGe,-0.733085124
34108,ZnGeP2,-0.210394122
34109,Li4GeO4,-2.309556449
34110,La(GeRh)2,-0.9134698
34111,Sr2GeS4,-1.783164633
34112,MnGeRh2,-0.442923749
34113,K2Ge8O17,-2.163273982
34114,Nd(GePd)2,-0.837845293
34115,Ho(GePd)2,-0.787266382
34116,NdScGe,-0.71929813
34117,ZrGeSe,-1.034070995
34118,Y(GeRh)2,-0.892759992
34119,Nd(GeRh)2,-0.898567461
34120,ZrGeS,-1.357207995
34121,InHO2,-1.794127894
34122,LiScGeO4,-2.89206934
34123,PaH3,-0.469107715
34124,Lu4Ge6Ru7,-0.637967027
34125,Y(NiGe)2,-0.695392898
34126,K6Ge2O7,-2.050884419
34127,Sm(GeRh)2,-0.901053406
34128,Ho(GeRu)2,-0.645308746
34129,In4GeSe4,-0.444731082
34130,Ge(PbS2)2,-0.843005273
34131,Li5GeN3,-0.614672181
34132,Tb(GePd)2,-0.810691555
34133,KTa(GeO3)3,-2.501350942
34134,RbTa(GeO3)3,-2.505449455
34135,RbNb(GeO3)3,-2.413053133
34136,TaTl(GeO3)3,-2.355492117
34137,Zr2Nb3Ge4,-0.52781703
34138,Tl2Ge2Se5,-0.35346836
34139,Ge4PbO9,-2.040941274
34140,Y2Ge5Ir3,-0.713217562
34141,K3Nb3Ge2O13,-2.642483634
34142,U3TiGe5,-0.400186667
34143,K2Ge2S5,-1.140936533
34144,Rb2Ge2Se5,-0.704753659
34145,Sr2GeO4,-2.929401766
34146,HoNiGe,-0.804953256
34147,YbMgGe,-0.609787466
34148,Pr4(GeS4)3,-1.668520359
34149,YbNaGeO4,-2.414982024
34150,RbGeIO6,-1.538470351
34151,K2Na4Ge2O7,-2.071463015
34152,Ge(TeO3)2,-1.712123328
34153,Rb2Ti(GeO3)3,-2.460112925
34154,NaSmGeO4,-2.849268081
34155,Si2Ge3P6O25,-2.63192908
34156,K4GeS4,-1.363831572
34157,LiNdGeO4,-2.873380415
34158,Na4Zr2(GeO4)3,-2.630868124
34159,Ge3Pb5O11,-1.860823921
34160,Rb2Ge4O9,-2.171440017
34161,Rb3U3Ge2O13,-3.01054876
34162,K5LiGe2O7,-2.110100086
34163,Yb3GeO,-1.893498129
34164,KNaGeO3,-2.133922946
34165,Rb3U2Ge2O11,-2.869951095
34166,NaGe4(PO4)3,-2.300730869
34167,Na2Ge4O9,-2.150945531
34168,In7GeIrO8,-1.669093436
34169,Nd4GeO8,-3.492789862
34170,KLaGeS4,-1.690716248
34171,GePb3O5,-1.743971201
34172,SrTiGeO5,-3.061428411
34173,Ho2Ge2O7,-3.086049097
34174,Nd4(GeS4)3,-1.663964894
34175,LiTaGeO5,-2.777317254
34176,K2Zn(GeO3)2,-2.133212934
34177,K2Ge(IO3)6,-1.174670813
34178,Mg10Ge3(H2O9)2,-2.608750382