id,Composition,FormationEnergy
27065,CuH10SO9,-0.710358716
27066,Sr4Mn2Cu3(SO)4,-1.94794592
27067,Dy3Ge4,-0.784215665
27068,RbCuPdF5,-2.046859656
27069,NaNb(CuS2)2,-1.082189106
27070,Sr2TlCuO5,-1.994173633
27071,KCuP2Se5,-0.357723598
27072,Sr2CuTeO6,-2.224640587
27073,VCuHPbO5,-1.749081556
27074,SrCu3(RuO3)4,-1.473137103
27075,SmMn4(CuO4)3,-1.853699619
27076,PrMn4(CuO4)3,-1.846189465
27077,DyMn4(CuO4)3,-1.854140238
27078,HoMn4(CuO4)3,-1.8517155
27079,Gd3SiCuSe7,-1.327637679
27080,SiCu5(SbO6)2,-1.560933155
27081,KCu2P2H3(O4F)2,-2.042670926
27082,KCu2H2(SeO5)2,-1.098646355
27083,CuH6(NO)4,-0.709939787
27084,Fe2CuH4(OF4)2,-2.12562361
27085,V2Cu(PO5)2,-2.370351461
27086,Fe2Cu2Ge4O13,-1.812817686
27087,CuSbPbS3,-0.674338517
27088,Na2Si4(CuO4)3,-2.43115274
27089,Sr2NdCu3(PbO4)2,-2.055801483
27090,Sr2DyGaCu2O7,-2.508600718
27091,Sr3CuPtO6,-2.24925498
27092,EuSr2GaCu2O7,-1.971321641
27093,Rb2Gd4Cu4S9,-1.73203214
27094,Dy5Mg24,-0.038050711
27095,SrLaCuRuO6,-2.340820451
27096,LaCu3(RuO3)4,-1.573016199
27097,Ti2Cu(PO5)2,-2.813618523
27098,FeRe14Cu4(Mo3S20)2,-0.984001223
27099,LiCuP2O7,-2.226005772
27100,Sr2La6TiCu3O16,-3.100775501
27101,Sr5La5Cu(NiO5)4,-2.606686581
27102,TlCuHSO5,-1.570801373
27103,CuP2H12N2(O4F)2,-1.564375682
27104,SrPrGaCuO5,-2.486236989
27105,SrLa7Cu4(SnO6)4,-2.726001094
27106,LiTi2NbCu2O9,-2.547762111
27107,Sr2La14Zn3Cu5O32,-2.982763519
27108,K3Cu2P4HO14,-2.340076519
27109,CuP3H12NO13,-1.385770043
27110,CuSnH12(NO3)2,-1.131255703
27111,Cu2H3NO6,-0.892110299
27112,TlCuHSeO5,-1.153759029
27113,CuH12N2(OF2)2,-1.325515696
27114,CuHIO4,-0.956487105
27115,Sr2Pr2MnCuO8,-2.687291996
27116,Rb2Cu3H2S3O14,-1.530299801
27117,Cu3H4SO8,-1.341171521
27118,KGd2Cu(MoO4)4,-2.44914651
27119,Cu4H7SO11,-1.103194565
27120,Sr5La5Mn9CuO30,-2.712051164
27121,Sr4La4Mn7CuO24,-2.69550864
27122,Sr3La9Mn10(CuO18)2,-2.804704133
27123,Sc2Cu3H36(NF)12,-0.786197075
27124,U2CuP2(H4O5)4,-2.042501478
27125,U2CuP2(HO)24,-1.883524133
27126,Tb2KCu(MoO4)4,-2.465284908
27127,KHo2Cu(MoO4)4,-2.464428444
27128,CuH20Se2(NO7)2,-1.168135698
27129,SiCuH8(O2F3)2,-1.994527282
27130,K2Cu3(MoO4)4,-1.835541328
27131,InCuPO5,-2.075419033
27132,ZrTlCuS3,-1.322533886
27133,ZrTlCuSe3,-0.868211672
27134,KCuPH2O5,-1.95609209
27135,CuH12Se(NO)4,-0.575202665
27136,CuH6SO7,-1.489661201
27137,Cu4H10SO12,-1.266630155
27138,Na4CuP6(H4O11)2,-2.187861024
27139,CuH16(IO8)2,-1.140905933
27140,Zn3Fe15Cu39(Ge3S32)2,-0.640120744
27141,CuH3(NO2)3,-0.849573565
27142,CuH2N2O7,-0.752702535
27143,Si4Cu5(HO7)2,-1.996978546
27144,CuH5Pb4SO11,-1.526520891
27145,Sr2Cu3(SO)2,-1.635162567
27146,Rb2Ti(CuS2)2,-1.354223566
27147,DySe,-1.276077724
27148,CuH4SeO5,-1.248515044
27149,ZrCuH8(O2F3)2,-2.136059674
27150,Na6CuP4(H13O15)2,-1.212494089
27151,CuP2(HO3)2,-1.45144276
27152,CuH12(NO)6,-0.12402455
27153,Na2CuH4(SO5)2,-1.82302222
27154,CuPH4O5F,-1.795995044
27155,SiCuH12(OF)6,-1.861226087
27156,NaCu2H2(SeO5)2,-1.220003032
27157,K4CuP6(H4O11)2,-2.222202808
27158,Dy3Ni2,-0.371591301
27159,CuP2(H2O3)2,-1.596429893
27160,CuH6(SeO4)2,-1.254803129
27161,Cu2H2Se2O7,-1.154821852
27162,Dy2Se3,-1.866562326
27163,Sr2La6Mn7CuO24,-2.830127179
27164,Mg2Cu2P2(H4O5)3,-1.854585936
27165,Cu9P4(HO10)2,-1.683964286
27166,V2CuH6(NO3)2,-1.37667769
27167,Sr5Nd5Cu(NiO5)4,-2.544769749
27168,Mn2Cu5P4(HO9)2,-1.954229382
27169,Y2CuH5S2O12F,-2.153370124
27170,Mn2CuH12(NO2)4,-0.564442171
27171,Li2SiCuO4,-2.347725512
27172,Li4Ti2Nb3Cu3O16,-2.503703679
27173,Sr2CuH2(SeO3)4,-1.681890338
27174,Li2CuSbO5,-1.767934073
27175,Li2ZrCuO4,-2.454321019
27176,Li3Cu4TeO8,-1.387577883
27177,Li3Cu3(PO4)2,-2.081518272
27178,NaCuP2O7,-2.232504025
27179,Li2TiCuO4,-2.392349177
27180,CuSb(PO4)2,-2.122186309
27181,Li5Nb2Cu3O10,-2.163997987
27182,LiCuTeO4,-1.508041579
27183,LiCu2PO4,-1.853799945
27184,Li2CuSnO4,-1.848267629
27185,Li5Cu3(TeO5)2,-1.625968336
27186,Li3Nb(CuO2)4,-1.716559853
27187,TiCu(PO4)2,-2.602156844
27188,LiCu5(PO4)2,-1.643127339
27189,Li3Cu4SnO8,-1.509458131
27190,LiSi2CuO5,-2.62135321
27191,Li4Si2CuO7,-2.577508429
27192,Li5Cu3(SbO5)2,-1.794170177
27193,Li4Cu3TeO8,-1.557652045
27194,CuH4(IO4)2,-1.048209854
27195,Ti2Nb2(CuO4)3,-2.458983697
27196,Li5Cu5(SbO6)2,-1.634959244
27197,MgSi4(CuO6)2,-2.568175533
27198,Li4NbCu3O8,-1.862180542
27199,Li5Nb2Cu5O12,-1.911990227
27200,Li4Cu3SbO8,-1.632916076
27201,Li10Si2CuO10,-2.412500664
27202,Ti3Nb(CuO4)3,-2.468756365
27203,Li2Si8Cu2O19,-2.802841022
27204,Li2Si4CuO10,-2.791646417
27205,Li2Si5Cu2O13,-2.67286033
27206,Li4Si3(CuO5)2,-2.474330268
27207,Li2Si2CuO6,-2.5721002
27208,Li2Si6Cu2O15,-2.693143371
27209,Li4Ti3Cu3(TeO8)2,-2.184778867
27210,Li3SiCuO4,-2.318357677
27211,CuSn(PO4)2,-2.23697073
27212,Li3CuPO5,-2.310474656
27213,Li5CuHO4,-1.750057726
27214,Li2Si2Cu2O7,-2.251755317
27215,Li2Cu5(PO4)4,-1.988315989
27216,Li4Cu(PO3)6,-2.502155932
27217,LiCu(HO)4,-1.334643007
27218,Li2Cu2P4O13,-2.313556903
27219,NaCu(PO3)3,-2.381966044
27220,Li4TiCu3(PO4)4,-2.399853434
27221,LiCu2(PO3)5,-2.299785235
27222,Ti3Cu3(TeO8)2,-1.938957456
27223,Li3Cu(TeO3)4,-1.591493657
27224,Li4Cu5(P3O11)2,-2.186114664
27225,LiCu3P3O11,-2.050121894
27226,Li5CuP3O11,-2.518470352
27227,Li4Mn5Cu3O16,-1.699766522
27228,Ti3VCu2(PO4)6,-2.736503838
27229,Li4Mn3Cu(PO4)4,-2.534652709
27230,V2Cu(PO4)3,-2.465528039
27231,Li4Cu3Ni(PO4)4,-2.216118763
27232,Li4Mn3Cu3(TeO8)2,-1.7209437
27233,Li4Ti3Cu3(WO8)2,-2.357605759
27234,Li4Cu7(PO4)6,-2.028706486
27235,Li4Nb2Fe3Cu3O16,-1.993847007
27236,Li6Mn3Cu(PO4)6,-2.442698773
27237,Li4Cu3Sb(PO4)4,-2.239180869
27238,Li14Cu9(P2O7)8,-2.344582592
27239,Li4Ti3Mn2Cu3O16,-2.206757396
27240,VFe3Cu2(PO4)6,-2.284413469
27241,Mn3Cu3(TeO8)2,-1.345398151
27242,Ti3Cu2P6WO24,-2.671309817
27243,Li4Fe3CuO8,-1.895378011
27244,Li4Ti3Fe3(CuO8)2,-2.242246971
27245,Li4CuNi3O8,-1.374327625
27246,Li4Fe3Cu3(SbO8)2,-1.733757378
27247,Li2Fe3CuO8,-1.605034827
27248,Li5Mn2Cu5O12,-1.56908605
27249,Li16Mn15(CuO12)3,-1.985909872
27250,V3FeCu2(PO4)6,-2.419201401
27251,Li5V3Cu(PO4)4,-2.504307974
27252,Li4Fe2Cu3Te3O16,-1.574642512
27253,Li4Fe3Cu2Sb3O16,-1.816973771
27254,Li2MnCu3O8,-1.359424132
27255,Li4Fe3Cu3(WO8)2,-1.840449637
27256,Li2Si4Cu4O13,-2.252044215
27257,Li2Si4Cu2O11,-2.595766203
27258,RbCuSb2H2Se4O,-0.692658536
27259,Mg3Si16(Cu3O16)3,-2.502208091
27260,Ti3V2Cu(PO4)6,-2.787466996
27261,VCu2HO5,-1.503280056
27262,Li2MnCu(PO4)2,-2.415796093
27263,Li4MnCu3(PO4)4,-2.307967778
27264,Li4Ti2Fe3Cu3O16,-1.960999898
27265,Li2CuNi(PO4)2,-2.239778323
27266,Li4Mn3Fe3(CuO8)2,-1.742442468
27267,LiMn5(CuO6)2,-1.665949776
27268,Li3CuSbO5,-1.948782729
27269,Fe3CuNi2(PO4)6,-2.132482498
27270,LiV3Fe2CuO12,-2.101735127
27271,Li3Cu2SbO6,-1.759369595
27272,Li4CuNi3(PO4)4,-2.264333478
27273,Mn2Fe3Cu(PO4)6,-2.296461893
27274,MnCu4H14(SO9)2,-1.446351444
27275,Li4Fe2Cu3Sb3O16,-1.751471577
27276,LiCu2(SO4)3,-1.745406742
27277,LiCuPH2O5,-1.912242638
27278,Li2Cu(HO)4,-1.475914275
27279,Li6Fe3Cu(PO4)6,-2.443479644
27280,Li9Mn12Cu3O32,-1.894862225
27281,Li5Cu(HO2)2,-1.756594711
27282,Li3Mn4CuO8,-1.941205218
27283,Li4Mn5CuO12,-1.902623964
27284,Li5Fe5(CuO6)2,-1.838043536
27285,Li4Mn3V2Cu3O16,-1.865356246
27286,Li3Fe(CuO3)2,-1.610576503
27287,Li3Cu4NiO8,-1.283707813
27288,Li5Cu5(SnO6)2,-1.588270241
27289,Li5Ti2Cu5O12,-1.960462922
27290,Li3Fe4CuO8,-1.832271333
27291,Li5Cu2Ni5O12,-1.310483474
27292,FeCu(PO4)2,-2.094206939
27293,Li3Fe3CuO8,-1.780569611
27294,Li5Mn2Cu3O10,-1.744338248
27295,Li4Mn3Nb2Cu3O16,-2.047664664
27296,Li5Fe2Cu3O10,-1.635234831
27297,Li5Fe2Cu5O12,-1.487747665
27298,Li4V3Cu3(SbO8)2,-1.979631765
27299,Li3FeCu3O8,-1.371726943
27300,Li3Mn(CuO3)2,-1.643800626
27301,Li3Mn2CuO6,-1.904923019
27302,Li2Mn3CuO8,-1.859003503
27303,Li4FeCu3O8,-1.550932045
27304,Li2CuNiO4,-1.360205028
27305,Fe5Cu(PO4)6,-2.285222655
27306,Li4Fe5Cu3O16,-1.533849029
27307,Li4MnCu3O8,-1.596424981
27308,Mn3Cu(PO4)4,-2.302257017
27309,NbCu3(PO4)4,-2.210001088
27310,Li5Cu6(P2O7)4,-2.263791076
27311,Li3V4CuO12,-2.262518
27312,LiV4CuO12,-2.095297881
27313,Li3Ti(CuO2)4,-1.778137787
27314,Li3Cu(NiO2)4,-1.25398246
27315,Li2CuSb(PO4)2,-2.261568204
27316,Ti2Cu(PO4)3,-2.824155084
27317,Li3Cu3TeO8,-1.48261389
27318,Li2MgSi4(CuO6)2,-2.67152097
27319,Li5Cu3(NiO5)2,-1.352069708
27320,Li5Cu5(NiO6)2,-1.256371537
27321,Li3Fe2CuO6,-1.841416489
27322,Li5Fe3(CuO5)2,-1.769647798
27323,Li2FeCuO4,-1.701923467
27324,Li4Mn3CuO8,-1.93859931
27325,LiMnCuO4,-1.616382002
27326,Mn5Cu(PO4)6,-2.309845395
27327,Li4Cu3Ni3(WO8)2,-1.566938572
27328,Li2CuP3H8O13,-1.941634916
27329,Mn3CuNi2(PO4)6,-2.151448862
27330,Mn2Cu(PO4)3,-2.216060337
27331,CuSb3(PO4)6,-2.252873517
27332,Li7Mn12Cu5O32,-1.816073252
27333,Li3V6Fe4(CuO12)2,-2.110073181
27334,Li2Mn2CuO6,-1.76813726
27335,V3Cu(PO4)6,-2.385797909
27336,Li8Ti16CuS32,-1.710698713
27337,LiNbCuO4,-2.234134662
27338,Li8Mg3Si16(Cu3O16)3,-2.606945717
27339,LiLa20Cu9O40,-3.036554179
27340,NbCu(PO4)2,-2.491801771
27341,Li3Ti2CuO6,-2.662473418
27342,Li4Nb3Cu3(TeO8)2,-2.096032058
27343,Li2V3CuO8,-2.24552024
27344,MnCu(PO4)2,-2.157228553
27345,VCu3(PO4)4,-2.078304068
27346,Li5Cu2Ni3O10,-1.372201786
27347,Li4Mn3Cu2Sb3O16,-1.863260443
27348,Li4Nb3Cu3(SnO8)2,-2.18903141
27349,MnCu3(PO4)4,-2.000246771
27350,Fe3Cu(PO4)4,-2.262615394
27351,Fe2Cu(PO4)3,-2.206663485
27352,Li2MnCuO4,-1.80561768
27353,Li4Mn3Cu3(SbO8)2,-1.794527079
27354,FeCu3(PO4)4,-2.008952643
27355,LiCuSbO4,-1.67956578
27356,Li4Mn3CuNi2(PO4)6,-2.296870921
27357,V3Cu(PO4)4,-2.503998936
27358,V3Cu2Ni(PO4)6,-2.331821904
27359,Li4Mn2Fe3Cu3O16,-1.601855416
27360,LiFeCuO4,-1.479537482
27361,Li4Mn3Cu3(SnO8)2,-1.772539794
27362,Li11V12(CuO4)12,-1.94358826
27363,Li4Mn3Cu2Sn3O16,-1.850065393
27364,Li4Nb2V3Cu3O16,-2.24761942
27365,Ti3CuSn2(PO4)6,-2.716026822
27366,Li4Fe3Cu3(SnO8)2,-1.68155509
27367,Li2MnV4CuO12,-2.21657742
27368,Li5V6(CuO4)6,-1.918346455
27369,NaLiCu(PO3)3,-2.388301442
27370,Fe3Cu2Sn(PO4)6,-2.245807521
27371,TiFe3Cu2(PO4)6,-2.373849078
27372,Mn2V3Cu(PO4)6,-2.507186787
27373,Ti3FeCu2(PO4)6,-2.692934011
27374,Ti3NbCu2(PO4)6,-2.764331308
27375,Li9Cu3P8O29,-2.423898673
27376,V3Fe2Cu(PO4)6,-2.457698529
27377,Fe3Cu2Sb(PO4)6,-2.246511494
27378,Ti3Cu2Sn(PO4)6,-2.697907661
27379,Ti3Cu2Sb(PO4)6,-2.644216314
27380,Na2LiCuP2O7,-2.36887441
27381,Li4Ti2Cu3Sb3O16,-2.117633287
27382,Li2V5CuO12,-2.260304849
27383,NaCu(PO3)4,-2.344842927
27384,Li4TiCu2Ni3(PO4)6,-2.294670543
27385,Fe3Cu2Te(PO4)6,-2.190615617
27386,Li4Mn2Cu3Sn3O16,-1.744910357
27387,Li4Cu3Ni2Sb3O16,-1.568931272
27388,Ti3CuNi2(PO4)6,-2.624992403
27389,NbFe3Cu2(PO4)6,-2.37292049
27390,Li5Fe3Cu2(PO4)6,-2.356879289
27391,Li4Ti3V3(CuO8)2,-2.532801541
27392,Ti3Cu2Te(PO4)6,-2.619779536
27393,Ti3Cu2Ni(PO4)6,-2.605973948
27394,Ti3Fe2Cu(PO4)6,-2.732386282
27395,Li5Mn3Cu2(PO4)6,-2.375350072
27396,Li4NbFe3Cu2(PO4)6,-2.414318319
27397,Li4Ti2V3Cu3O16,-2.275578332
27398,Ti3Mn2Cu(PO4)6,-2.781615785
27399,Li4Fe3Cu3(TeO8)2,-1.683520564
27400,Li4V5Cu3O16,-2.061076956
27401,Li4TiFe3Cu2(PO4)6,-2.449784648
27402,Li4Ti3Fe2Cu3O16,-2.164613504
27403,Li4Mn3Fe2Cu3O16,-1.667568883
27404,Cu3Sb(PO4)4,-2.003409111
27405,Mn3Cu2Ni(PO4)6,-2.126043841
27406,Li5Ti2Cu3O10,-2.222224778
27407,Li3MnCu3O8,-1.460228555
27408,Li2Cu(PO3)3,-2.383035086
27409,LiCuP4O11,-2.327155134
27410,Sr3Li3Cu3(PO4)4,-2.613032667
27411,Li3Cu(NiO3)2,-1.361365592
27412,Li4V2Fe3Cu3O16,-1.791326479
27413,Li4Ti3Mn3(CuO8)2,-2.320241757
27414,Li4Cu2Ni3Sb3O16,-1.566926125
27415,Li4Ti2Mn3Cu3O16,-2.059202952
27416,Li3CuP2O7,-2.419353957
27417,Li3Fe2(CuO4)2,-1.578086282
27418,Li9Cu2(HO2)4,-1.707426809
27419,LiCu2P3H8O13,-1.792902827
27420,Mn3Cu2Sn(PO4)6,-2.244150973
27421,DyPd3,-0.901243252
27422,TbLi(CuP)2,-0.808301399
27423,Li2CuP3(HO5)2,-2.236270649
27424,Li2Fe(CuO3)2,-1.39020682
27425,Li4Fe2Cu3O10,-1.511850242
27426,LiCu2P3(HO5)2,-2.053209988
27427,Li2Fe2CuO6,-1.609167915
27428,Li3Mn5(CuO6)2,-1.808324934
27429,Li2Mn5(CuO6)2,-1.746171718
27430,Li4Mn2Cu3O10,-1.63015811
27431,Li4Mn5(CuO6)2,-1.859093749
27432,Li3Ti2Cu3O10,-2.05335465
27433,Li4Ti3V2Cu3O16,-2.389220684
27434,Li4Cu3Sn(PO4)4,-2.254963423
27435,LiTi3Nb(CuO4)3,-2.511298046
27436,Li4Cu2Ni5O12,-1.209241632
27437,Li4Mn3Cu3(WO8)2,-1.879539959
27438,Li3CuNi3O8,-1.223163002
27439,CuH10SeO9,-1.274724312
27440,Dy2Mg,-0.062698122
27441,DyHg3,-0.347765474
27442,DyI3,-1.375347421
27443,Dy2Ni7,-0.393863904
27444,RbNpCuS3,-1.497710543
27445,Li7Si2CuO8,-2.457749195
27446,Li6Fe5CuO12,-1.836369589
27447,MnV3Cu2(PO4)6,-2.409948638
27448,NaZrCuS3,-1.527485294
27449,Sr2YTlCu2O7,-2.25932293
27450,DyPt2,-1.112257748
27451,SmCuSeO,-2.127285792
27452,KZrCuS3,-1.598933591
27453,HfTlCuSe3,-0.857970613
27454,Sr2GaCuSO3,-2.328201295
27455,Sr2ZnCu2(SO)2,-1.750840331
27456,Yb2Cu(GeO3)4,-2.241650877
27457,SrCu(SeO3)2,-1.741686486
27458,Sm3Dy,0.0152209
27459,SmDy3,0.01194181
27460,La3Dy,0.013189699
27461,LiSm(CuP)2,-0.803769813
27462,PmDy3,0.016258801
27463,LiDy3,0.185295213
27464,NdCuTeO,-1.976474315
27465,NdDy3,0.015851001
27466,Rb3Dy,0.628244723
27467,PrDy3,0.015211938
27468,K2NbCuS4,-1.384230765
27469,NaDy3,0.298790998
27470,Li3Dy,0.210510749
27471,SrDy3,0.20721036
27472,YDy3,0.021145973
27473,YbDy3,0.10541223
27474,TaTl(CuS2)2,-0.981291022
27475,DyO3,-2.014865181
27476,Dy3Ga,-0.247400176
27477,DyP5,-0.539542028
27478,KHfCuS3,-1.612716711
27479,DySi2,-0.525235457
27480,Li2FeCu(PO4)2,-2.36577039
27481,Y8Cu3(GeS7)3,-1.646378992
27482,Sr2YVCu2O7,-2.518985058
27483,Sr6YTl3(Cu2O7)3,-1.836219797
27484,Y8Cu3(SnS7)3,-1.629942547
27485,Y8Si3(CuS7)3,-1.738535277
27486,SrCuSO,-1.519170865
27487,Sr6YGa3(Cu2O7)3,-2.072506047
27488,YCu3(SbO3)4,-1.714369684
27489,Sr2YTiCu2O7,-2.754503247
27490,SrMgCu(PO4)2,-2.764984894
27491,SrZnCu(PO4)2,-2.534669829
27492,Sr2YCu2SnO7,-2.395968664
27493,Sr2YTaCu2O7,-2.631319966
27494,Sr2YCu2SbO7,-2.37207009
27495,Sr3Mn2Cu2S2O5,-2.108039539
27496,Zn2CuIrO6,-1.250610168
27497,Mg2CuIrO6,-1.811757767
27498,Sr2YFeCu2O7,-2.401266285
27499,Sr2YCu2NiO7,-2.167153746
27500,Sr2YMnCu2O7,-2.405535697
27501,ZnCuNiP2O9,-1.835537281
27502,Sr2YCu2MoO7,-2.3585445
27503,MgTiCu(PO4)3,-2.641507237
27504,TiZnCu(PO4)3,-2.456897637
27505,LaMgFeCuO6,-2.22155368
27506,LaZnFeCuO6,-1.942984594
27507,Y4Si2Cu13(SbO14)2,-1.824903678
27508,EuS,-2.13107762
27509,ErH,-0.400122024
27510,ErP,-1.058140774
27511,ErN,-1.013133841
27512,Eu3Re,0.696455282
27513,EuInNi5,-0.188845097
27514,ErNp3,0.70984523
27515,ErPu3,0.260931634
27516,ErTlTe2,-1.03674167
27517,DyTlTe2,-1.054585332
27518,EuNaS2,-1.826692477
27519,EuSe,-1.727814212
27520,ErSb,-0.758662815
27521,EuFeO3,-2.519015357
27522,Eu2O3,-3.114649275
27523,ErH3,-0.638872011
27524,ErGa,-0.625499227
27525,EuPd,-0.683650733
27526,ErSb2,-0.19318739
27527,DyScSb,-0.856808617
27528,DyTlZn,-0.302697413
27529,DyZnIn,-0.440456605
27530,DyZnGa,-0.565882302
27531,Er2Mg3Ru,-0.235769918
27532,ErH2,-0.579928449
27533,ErS2,-2.094291714
27534,ErTlZn,-0.27590245
27535,ErZnIn,-0.418768017
27536,ErZnGa,-0.553814643
27537,ErTe2,-1.100921955
27538,EuO2,-2.500096363
27539,Li3DySb2,-0.817852123
27540,ErInNi4,-0.406341898
27541,ErPt5,-0.653694618
27542,ErZn2,-0.386764972
27543,LiDyO2,-3.299426825
27544,DyInPt4,-0.810011267
27545,Dy(TiGa2)2,-0.534015763
27546,ErPt,-1.309296725
27547,ErO3,-2.094785805
27548,ErGa2Ni,-0.649003176
27549,DyInPt2,-0.83243658
27550,NaEr(SO4)2,-2.665321851
27551,ErNi3,-0.432722378
27552,Dy6FeTe2,-0.617781847
27553,ErTl,-0.307413495
27554,Er,0.03020135
27555,Dy4(SiS4)3,-1.83154478
27556,RbErSe2,-1.727884739
27557,ErSF,-3.365036675
27558,NaErPO4F,-3.3838143
27559,LiErO2,-3.334107652
27560,Er5Ga3,-0.473577089
27561,ErHg2,-0.358460147
27562,ErIn,-0.44128753
27563,ErInPd2,-0.850101332
27564,ErSn3,-0.370971812
27565,DyTlPd,-0.66418124
27566,EuHg,-0.553614988
27567,Er(TiGa2)2,-0.52974122
27568,Er(VGa2)2,-0.403969111
27569,Er3Rh,-0.55064114
27570,NaErO2,-3.204453077
27571,ErSbPd,-1.119885637
27572,Er5Ge3,-0.801215329
27573,ErMn2,0.077312162
27574,DySbPd,-1.083890723
27575,Er4Sb3,-0.943733839
27576,Er(PRu)2,-1.035330307
27577,Dy(SiOs)2,-0.728306442
27578,Er3Ga5O12,-2.998458595
27579,ErSi2Ni,-0.824363321
27580,NaEr(PS3)2,-1.306932208
27581,ErSi3Ni,-0.68332467
27582,Er3Pd2,-0.766867579
27583,EuZn,-0.263783168
27584,Dy2SO2,-3.636928749
27585,Er2SO2,-3.651954391
27586,Er2InPd2,-0.889184618
27587,ErTe,-1.205293505
27588,Er3FeSi3,-0.749781925
27589,ErIn3,-0.38490067
27590,Er5Sb3,-0.883151834
27591,Er2O3,-3.998373699
27592,Sm(ErSe2)3,-1.870145588
27593,Sm(ErS2)3,-2.481575452
27594,DyZnRh,-0.739744523
27595,LiErGe,-0.710726352
27596,Er2Mg,-0.027013318
27597,Er4In(NiGe2)2,-0.774840893
27598,ErGePt,-1.136303177
27599,Er2Ge2O7,-3.091524905
27600,Rb2NaErF6,-3.626981667
27601,Sr2DyReO6,-3.025996093
27602,Sr2ErReO6,-3.050904164
27603,Er2SeO2,-3.424405712
27604,Dy2Si5Rh3,-0.977018313
27605,Er2Te3,-1.38825205
27606,NaEr(PO3)4,-2.924589944
27607,ErIr2,-0.82361226
27608,Dy2Ru2O7,-2.614057502
27609,Dy2Si5Ni3,-0.796219503
27610,ErSi3Rh5,-0.977079522
27611,DyTa7O19,-3.441203559
27612,Dy3Ga5O12,-2.991477843
27613,KDyS2,-2.22170894
27614,LiDyS2,-2.184107195
27615,LiErS2,-2.190305372
27616,LiDySe2,-1.697784799
27617,LiErSe2,-1.694404399
27618,Dy2TeO2,-3.263682111
27619,Dy3Si3O10F,-3.739302017
27620,ErS,-2.282418447
27621,DyPPt,-1.357758229
27622,DySbPt,-1.2269344
27623,ErSbPt,-1.22390023
27624,Dy4Si2S3O7,-3.310202827
27625,K3DySi2O7,-3.10151717
27626,K3ErSi2O7,-3.108097291
27627,ErZn,-0.34273073
27628,Er2SiO5,-3.82748205
27629,Dy2Si2O7,-3.680659692
27630,ErSiPd,-1.012454607
27631,Er3Ge4,-0.767837125
27632,Sr3ErRhO6,-2.960446902
27633,DyPtF7,-2.941441747
27634,Er2Fe17,-0.023731603
27635,K2ErF5,-3.801439781
27636,NaErGeO4,-2.905579669
27637,DyFe2,-0.082290632
27638,ErRh2,-0.767702007
27639,Er2SiSeO4,-3.35805964
27640,ErGe2Pt,-0.839952012
27641,ErRh5,-0.286592742
27642,RbDy(SO4)2,-2.684494873
27643,Dy2SiSeO4,-3.365427218
27644,ErPtF7,-2.938408971
27645,KEr3F10,-4.327277802
27646,EuPd2,-0.717770867
27647,KEr(SO4)2,-2.684164017
27648,KEr(PO3)4,-2.936643151
27649,ErGe2Ir,-0.781994836
27650,Sr3DyRhO6,-2.946185757
27651,Sr2ErMoO6,-3.162418926
27652,DyVO4,-3.227970427
27653,ErVO4,-3.191951394
27654,ErNiO3,-2.423895007
27655,ErPt3,-1.0588538
27656,ErVO3,-3.317878131
27657,ErMnO3,-3.096344746
27658,Er2Mn2O7,-2.924710466
27659,DyNiO3,-2.411030942
27660,ErMn2O5,-2.666899014
27661,ErNi2,-0.480829717
27662,Er(FeO2)2,-2.533270236
27663,Dy4Mo4O11,-2.794271817
27664,EuTe,-1.450962568
27665,ErMnSi,-0.5297806
27666,EuGe3Pt,-0.661067986
27667,EuSnP,-0.813447011
27668,Eu(ZnGe)2,-0.398473376
27669,ErGeRu,-0.733231722
27670,EuSi2,-0.463640018
27671,DySiRu,-0.833901898
27672,EuF3,-3.81192686
27673,Dy2Ti3Si4,-0.809424774
27674,DyGeRu,-0.724117908
27675,ErGeRh,-0.997138512
27676,Eu,0.100822705
27677,Eu(SiPd)2,-0.820583693
27678,Dy(GePt)2,-0.801573584
27679,ErMnGe,-0.49921804
27680,DyPb3,-0.277173185
27681,Dy(Fe2Ge)2,-0.294566134
27682,DySiIr,-1.058374589
27683,EuP,-1.029332552
27684,EuPb3,-0.405260114
27685,EuN,-0.995976404
27686,EuSn3,-0.473327634
27687,EuPb,-0.516183808
27688,Er(Fe2Ge)2,-0.322579456
27689,DySiPt,-1.197927878
27690,DyMgIn,-0.400914664
27691,DyTiGe,-0.692008054
27692,Dy(MnGe)6,-0.319186785
27693,ErNiGe,-0.808760523
27694,EuGe,-0.70528221
27695,EuHg2,-0.473565385
27696,ErSiIr,-1.081863372
27697,DyGePt,-1.137709105
27698,Dy4In(NiGe2)2,-0.787126135
27699,Dy3In,-0.27475912
27700,ErGePd2,-0.919518194
27701,Dy2Sn2O7,-3.04920576
27702,Eu(Sb3Ru)4,-0.321882913
27703,Dy2InPd2,-0.884333358
27704,Er2Se3,-1.878800896
27705,ErTiSi,-0.663326807
27706,DyTiSi,-0.654041386
27707,DyIn5Rh,-0.428358556
27708,Dy(MnGe)2,-0.479467375
27709,DySnPd2,-0.881978433
27710,Dy3Mn3Ga2Si,-0.347234906
27711,Dy(GeRu)2,-0.651055322
27712,ErGeIr,-0.939853868
27713,DyMnGe,-0.493457304
27714,EuGa2,-0.528639682
27715,EuMg,-0.08210487
27716,ErNiSb,-0.906206363
27717,EuSi,-0.597332253
27718,DyGeIr,-0.928309934
27719,Eu(PIr)2,-0.941971058
27720,EuO,-3.137576838
27721,Dy(NiGe)2,-0.691803634
27722,Dy(FeGe)2,-0.45716897
27723,ErSi2,-0.493723917
27724,Er(SiNi5)2,-0.451873565
27725,Er6Fe23,-0.074842362
27726,EuGa4,-0.443031753
27727,DyMnSi,-0.513393096
27728,ErSiRh,-1.076729213
27729,EuGe2,-0.523212212
27730,DyGaPd,-0.903592397
27731,Er5Mg24,-0.040037999
27732,Dy(GePd)2,-0.799024638
27733,ErSiRu,-0.853934539
27734,ErMg,-0.071131033
27735,EuNi5,-0.138411278
27736,Er2S3,-2.467009206
27737,DyInPt,-1.01056431
27738,ErMn12,-0.01341794