id,Composition,FormationEnergy
20166,ErClO,-3.531467915
20167,H3NCl,-0.590315587
20168,Hg(ClO3)2,-0.577468725
20169,Dy(ClO4)3,-1.096690251
20170,Sm(ClO4)3,-1.116746577
20171,La(ClO4)3,-1.139715415
20172,Sr3La2Cl12,-2.82915992
20173,Sr2LaCl7,-2.842081819
20174,Sc(ClO4)3,-0.984869416
20175,Ho(ClO4)3,-1.09285101
20176,Sr3LaCl9,-2.864844999
20177,Sr5La2Cl16,-2.776233913
20178,Tm(ClO4)3,-1.107389141
20179,LaSCl,-2.693679005
20180,Sr9La5Cl33,-2.84292278
20181,ICl2,-0.381662579
20182,Gd2SCl4,-2.632985912
20183,Sb16Cl4O21,-1.646554132
20184,YSeCl,-1.439077601
20185,ReClO3,-1.867395471
20186,Pr6IrCl11,-2.358365228
20187,PW4Cl11,-1.187946516
20188,Te6RhCl3,-0.572612985
20189,WCl4,-1.30116182
20190,Na3DyCl6,-2.355033236
20191,CsPb2Cl5,-1.763838163
20192,Li3ClO,-2.063281071
20193,ScClO,-3.281235947
20194,GeClF,-1.653361876
20195,Rb2LiTlCl6,-1.79103296
20196,CuClO2,-0.775786535
20197,TlCuCl3,-1.04587391
20198,RbSrCl3,-2.592817514
20199,RbSnCl3,-1.7502775
20200,RbPdCl3,-1.437567676
20201,RbInCl3,-1.731003018
20202,LiSnCl3,-1.665307102
20203,KGeCl3,-1.620936691
20204,InGeCl3,-1.172265603
20205,KCrCl3,-1.724385172
20206,InPbCl3,-1.382325725
20207,InSnCl3,-1.27790631
20208,CsSrCl3,-2.656723983
20209,RbPbCl3,-1.860797616
20210,TlInCl3,-1.370770706
20211,TlGeCl3,-1.272635889
20212,Sb3Se2ClO8,-1.239287843
20213,V3Se2ClO8,-1.742226018
20214,Cr3Se2ClO8,-1.549170608
20215,Se2Cl2O5,-0.426016128
20216,W3Se2ClO8,-1.164393501
20217,Mo3Se2ClO8,-1.404116181
20218,NaLiICl,-1.60875251
20219,CsLiICl,-1.570965031
20220,KNaICl,-1.727379475
20221,CsKICl,-1.846466311
20222,VCo,-0.066451262
20223,Na3Co,0.65959803
20224,Nd7Co3,-0.050474088
20225,CrCuN6Cl5,1.079946574
20226,CoNi,0.153270283
20227,CoMo,0.299090932
20228,CoW,0.325567142
20229,FeCo3,0.015067099
20230,Co3W,-0.040391506
20231,Co3Mo,0.010447021
20232,CrCo3,0.065154469
20233,Co3Ni,-0.002871071
20234,CoN,0.793281391
20235,MnCo,-0.006757818
20236,NbCo,-0.009208012
20237,CoTe2,-0.197258362
20238,TaCo,-0.097391592
20239,CrCo,0.173156323
20240,VCo3,-0.157298351
20241,NbCo3,-0.132577746
20242,Co,0.019652385
20243,KLiICl,-1.655157091
20244,CsNaICl,-1.691010265
20245,Ho2Co17,-0.100918306
20246,K2Cu(ClF)2,-2.135774676
20247,Co3H,-0.032979425
20248,Cr3Co,0.239919379
20249,Li5P(S2Cl)2,-1.538002824
20250,Li20Si3P3S23Cl,-1.344881463
20251,CoGe,-0.210285956
20252,GaCo,-0.27949973
20253,TaCo3,-0.234181664
20254,Co3Se4,-0.260303381
20255,TbCo5,-0.098419322
20256,CoS,-0.602834185
20257,YCo2,-0.175541095
20258,CoSb3,-0.186360594
20259,Co2P,-0.498677933
20260,UCo2,-0.223056498
20261,CoP2,-0.532472504
20262,SmCo5,-0.059645949
20263,Co9S8,-0.79211895
20264,V3Co,-0.197752919
20265,Co2Ge,-0.092982667
20266,Th2Co17,-0.111782051
20267,LaCo5,-0.013788589
20268,TaCo2,-0.216197915
20269,Fe15Co,-0.002861798
20270,Co3O4,-1.417189996
20271,CoO,-1.309973008
20272,CoP3,-0.496846312
20273,Co2Si,-0.452886008
20274,Pu2Co,0.154889112
20275,CoSn2,-0.053907952
20276,HfCo,-0.39554595
20277,In2Co,0.017942608
20278,CoSn,-0.101802151
20279,Ga3Co,-0.266039516
20280,CoS2,-0.786591283
20281,PrCo2,0.014741752
20282,CoSe2,-0.290511729
20283,FeCo,-0.059722443
20284,LuCo2,-0.285741755
20285,ScCo,-0.365887157
20286,In3Co,-0.035094839
20287,CoP,-0.5824482
20288,PuCo3,0.106649405
20289,Co2N,-0.054846939
20290,TbCo2,-0.180266041
20291,Co5Ge7,0.385786845
20292,Co9Se8,-0.273735916
20293,CoSi,-0.404659953
20294,CoN3,0.354484901
20295,ZrCo,-0.281876882
20296,ErSeClO3,-2.502787265
20297,LuSeClO3,-2.506989651
20298,K2Os(Cl2O)2,-1.702975467
20299,ReNClF5,-1.950868008
20300,Sr2Cu(ClO)2,-2.452556936
20301,Pb2ClOF,-1.942024842
20302,Cs2NaUCl6,-2.20221928
20303,Cu5Se2(ClO4)2,-1.027476862
20304,Cs2NaYCl6,-2.497411777
20305,Sr5P3ClO12,-3.348848469
20306,K3NaFeCl6,-1.913002925
20307,SbPbClO2,-1.720644039
20308,TlRe3(Se2Cl)2,-0.725979924
20309,TlZnSClO4,-1.863682801
20310,HfCo2,-0.367456925
20311,CuHgSCl,-0.67104287
20312,SbPCl8O,-1.363258494
20313,CsSbClF3,-2.615208897
20314,HoSeClO3,-2.500753085
20315,Sm3Si2ClO8,-3.638359853
20316,KSbClF3,-2.589994479
20317,TlRe6Se8Cl3,-0.661684834
20318,Cs3Np(Cl2O)2,-2.597216309
20319,TeSeS(NCl)2,-0.281942822
20320,Na4Ga3Si3ClO12,-2.699604423
20321,Na6S2ClO8F,-2.379706359
20322,SnH8(NCl3)2,-1.052490771
20323,CoSi2,-0.468113292
20324,LiH6ClO7,-1.277691027
20325,K2H2IrCl5O,-1.545476995
20326,CoCuH18N6Cl5,-0.773127234
20327,H8PtN2(ClO)2,-0.923536314
20328,CuH4(ClO)2,-1.182009244
20329,SrH12(ClO3)2,-1.584815216
20330,K2HgH2Cl4O,-1.613838907
20331,YH12(ClO2)3,-1.645026078
20332,HoCo2,-0.219819338
20333,NaH6ClO5,-1.307454488
20334,GdH12(ClO2)3,-1.639398185
20335,ZnH12N4(ClO4)2,-0.750589531
20336,CrCuH18N6Cl5,-0.818801497
20337,H4NClO,-0.831111435
20338,SrHClO,-2.500211953
20339,CsRuH18N6(ClO2)4,-0.789581088
20340,NdH2ClO2,-2.45718805
20341,KRuH18N6(ClO2)4,-0.779009743
20342,CrHgH18N6Cl5,-0.831514027
20343,H8Pt(NCl3)2,-0.916649462
20344,HgHClO4,-0.801472263
20345,UH12(ClO2)3,-1.518573197
20346,MgH4(ClO)2,-1.702767924
20347,MgH2Cl2O,-1.84526009
20348,HoCo5,-0.110767291
20349,H5N2ClO4,-0.619657506
20350,TlH4NCl4,-0.983001883
20351,FeCoH18(NCl)6,-0.819914348
20352,H12OsN5Cl3O,-0.785986371
20353,Rb2CuH4(Cl2O)2,-1.519013126
20354,RbRuH18N6(ClO2)4,-0.78532428
20355,Sr2Co(ClO)2,-2.520694812
20356,Sr3Co2Cl2O5,-2.331476036
20357,Sr3Fe2Cl2O5,-2.603389294
20358,FeMoClO4,-1.872364037
20359,Sr4Mn3(ClO4)2,-2.625267678
20360,NiH12(ClO3)2,-1.312752364
20361,ScCo2,-0.350233033
20362,Er2Co17,-0.104387832
20363,CoO2,-1.117572519
20364,CoH4(ClO)2,-1.315635479
20365,CrH17N4Cl2O3,-0.999447612
20366,DyCo5,-0.105560579
20367,CsCrH18N6(ClO2)4,-0.855032155
20368,KCrH18N6(ClO2)4,-0.845425532
20369,RbMnH4Cl3O2,-1.638747029
20370,VH12(ClO2)3,-1.453882775
20371,MnH8(ClO2)2,-1.439015842
20372,NiH8(ClO2)2,-1.277842657
20373,La3W(ClO2)3,-3.214643303
20374,K2FeH2Cl5O,-1.703849987
20375,YCo3,-0.157273837
20376,DyCo2,-0.201618275
20377,CoSb,-0.16051977
20378,Sc3Co,-0.221273437
20379,ErCo5,-0.115674444
20380,YbCo2,-0.05973884
20381,YCo5,-0.096675811
20382,PrCo5,-0.008698991
20383,CoGe2,-0.151026522
20384,HoCo3,-0.187628715
20385,LaCo13,-0.031756401
20386,Sc2Co,-0.260042193
20387,ThCo,-0.355808407
20388,Th7Co3,-0.253293265
20389,Ti2Co,0.463349572
20390,Zn13Co,-0.050237527
20391,Zr6Co23,-0.219158226
20392,Zr3Co,-0.20985989
20393,Tb12Co7,-0.165388489
20394,Ho12Co7,-0.195753454
20395,Er12Co7,-0.209899586
20396,NpCo2,-0.07307708
20397,SmCo2,-0.089458507
20398,Nd2Co17,-0.047094724
20399,ErCo3,-0.205610576
20400,K3Sn2S3ClO12,-2.161534342
20401,K2MnH4(Cl2O)2,-1.710775794
20402,CoH22N7(ClO2)4,-0.649418452
20403,CoSe,-0.135674934
20404,KCu2H20N3(Cl2O)4,-1.092545661
20405,NdCo2,-0.02583116
20406,NaH4ClO2,-1.543377107
20407,P3Pb5ClO12,-2.316156494
20408,FeH4(ClO)2,-1.418836288
20409,Sr2CoClO3,-2.449350896
20410,ScH6N2Cl3,-1.300515186
20411,Pu3Co,0.110746922
20412,UCo5,-0.071060464
20413,Cu2H3ClO3,-1.117957548
20414,K6LiFe24S26Cl,-0.885230181
20415,ErCo2,-0.238294398
20416,Sm2Co7,-0.080756558
20417,NaH2ClO5,-1.204575647
20418,MnH4(ClO)2,-1.498038595
20419,ScH13Cl2O7,-1.626002578
20420,Cs2U(Cl2O)2,-2.704196906
20421,SrH9ClO5,-1.652732387
20422,K2RuNCl5O,-1.534291293
20423,KH18OsN6(ClO2)4,-0.763042543
20424,Hg3S2ICl,-0.565573443
20425,MgCo,-0.009369415
20426,GdCo2,-0.16629482
20427,K2CrH2Cl5O,-1.805647679
20428,FeH12Pt(ClO)6,-1.311823876
20429,Cs2NaHoCl6,-2.503674293
20430,NdTe2ClO5,-2.080978749
20431,HgPb2(ClO)2,-1.361704921
20432,Sr2Cu3(ClO2)2,-1.886816805
20433,GdTe2ClO5,-2.071841148
20434,H6RuN3Cl3O,-0.854053734
20435,K4NpS2ClO10,-2.559921143
20436,SClO2F,-1.76233358
20437,CsK(ClO4)2,-1.212863681
20438,SmSeClO3,-2.470987853
20439,FeS3N2Cl5,-0.708812555
20440,SbS4N4Cl5,-0.526756705
20441,ZrHg3(SCl3)2,-1.393832457
20442,Li4Ga3Si3ClO12,-2.747282401
20443,ZrSCl6O,-1.804340273
20444,Tl3Hg2S3ClO12,-1.670087026
20445,Na15S5Cl(O5F)4,-2.436362974
20446,CuSb2ClO3,-1.44897418
20447,La3U(ClO2)3,-3.617498701
20448,RePCl8O,-1.306876213
20449,SrHg2(ClO)2,-1.646241474
20450,TiS4(NCl)5,-0.63510089
20451,Pr2Ti3(ClO4)2,-3.505222532
20452,GdCuSe2ClO6,-1.842371599
20453,PNClF,-1.511531219
20454,LaNb2ClO6,-3.218947352
20455,Cu7P12S9Cl7,-0.617952523
20456,K2TeClF5,-2.647432739
20457,Rb2PdN2(ClO2)2,-1.361821891
20458,Rb2SbCl3F2,-2.29753169
20459,Sm2Ta2Cl2O7,-3.456931364
20460,SbS2NCl8,-0.902823189
20461,TeS4(NCl)4,-0.40373567
20462,LaH6(ClO3)3,-1.359064989
20463,Sr3Se3(ClO4)2,-2.252427188
20464,SnH22(Cl3O5)2,-1.363550581
20465,MgP4(Cl5O3)2,-1.928319679
20466,Pr3Si2ClO8,-3.59635297
20467,SbP(Cl3O)2,-1.553327871
20468,DyCuTe2ClO6,-2.006187588
20469,TbSeClO3,-2.496181611
20470,Te2Pb3(ClO3)2,-1.598089848
20471,La6S4N3Cl,-2.248207367
20472,SbS2NCl6,-0.872485517
20473,Tb3Si2Cl5O6,-3.237579894
20474,CsYSeCl2O3,-2.438870191
20475,SmTiClO3,-3.520401508
20476,PrSClO4,-2.752041047
20477,Ga2S5N5Cl7,-0.749636516
20478,Eu2SiCl2O3,-3.156143067
20479,Mg2PClO4,-2.912650783
20480,S4IN3Cl2,-0.294183947
20481,Re2S2NCl11,-0.912056538
20482,ErCu3Se2ClO8,-1.615221821
20483,S5N2ClO6,-1.176685086
20484,KCu3S2ClO9,-1.653065094
20485,SbTe(ClF2)3,-2.126239287
20486,Nb2Te4Cl10O,-1.382771414
20487,NdSeClO3,-2.442087733
20488,WS2(NCl)3,-0.700392701
20489,Na2Pr4Cl9O2,-2.767430222
20490,Sn2PClO4,-2.151025307
20491,MnSbS2Cl,-0.957014093
20492,EuTiClO3,-3.19940414
20493,ErCuTe2ClO6,-2.007823913
20494,Nb2Tl5S4Cl9,-1.413454375
20495,Tb5Se2Cl3O10,-3.040962938
20496,TaP4S4Cl5,-1.071836737
20497,Pr6S4N3Cl,-2.096207207
20498,DyTiClO3,-3.550877925
20499,Pr3Si2S8Cl,-1.942002505
20500,Pr3U(ClO2)3,-3.509395899
20501,P2SN3Cl5O,-0.881041031
20502,La3Si2S8Cl,-2.033207648
20503,FeS3(NCl2)2,-0.677331174
20504,K2ReCl5O,-1.777693409
20505,CsTmSeCl2O3,-2.455587516
20506,TeS2(NCl)2,-0.406149636
20507,NClOF4,-1.082216275
20508,CoF2,-2.389682846
20509,LaPb6ClO7,-1.920625045
20510,InSb2S4Cl,-0.87330234
20511,GdSeClO3,-2.462740948
20512,La3TiCl5O4,-3.353292788
20513,TaP2S2Cl5,-1.314372081
20514,CsTcNClO4,-1.177577559
20515,K2OsN3Cl3O5,-1.322598151
20516,Sm3Si2Cl5O6,-3.225385324
20517,RuCl(OF3)2,-1.618448244
20518,SrCu2Te2(ClO3)2,-1.650921086
20519,Sm3SiS6Cl,-2.152946617
20520,TaP4S6Cl5,-1.047151927
20521,RbErSeCl2O3,-2.44010532
20522,PtS4N3Cl,-0.313486751
20523,FeS4N4Cl3,-0.408471891
20524,Y3Si2Cl5O6,-3.22270884
20525,K3ReClF6,-2.686022938
20526,Zn2TeCl2O3,-1.623629256
20527,Cu3Se2(ClO3)2,-1.05341059
20528,Ho11Te16ClO48,-2.505328131
20529,TiP2Cl8O3,-1.933384043
20530,Sr2SiCl2O3,-3.240905075
20531,K4Re2Cl10O,-1.747379737
20532,GeClO2F5,-1.897455722
20533,Cu3TeS3Cl,-0.538599241
20534,PCl2OF,-2.002371454
20535,K5NaS4(ClO6)2,-2.217192112
20536,K3Sn5Cl3F10,-2.512951065
20537,Zn2SeCl2O3,-1.523133693
20538,PSN(Cl2O)2,-1.191630619
20539,HfSCl6O,-1.839364726
20540,InTeClO3,-1.689349965
20541,GdSClO4,-2.726429871
20542,Ti4S8Cl6O,-1.802396245
20543,Pr4S3NCl3,-2.453274624
20544,MoS2N2Cl5,-0.826094789
20545,DySeClO3,-2.499127187
20546,IClOF,-1.098023781
20547,Cu4Te5(ClO3)4,-1.264739569
20548,Rb2Nb3Cl7O5,-2.45998766
20549,Tb3Se2ClO8,-2.82964416
20550,TmSeClO3,-2.508251257
20551,K2PtN3(ClO2)3,-1.275400036
20552,Nd3U(ClO2)3,-3.507561662
20553,Hg3PClO4,-1.489937375
20554,Cu9Se4(Cl3O7)2,-1.026951863
20555,S3N3ClO2,-0.581359342
20556,PClOF2,-2.428202433
20557,Sb2ClO2F11,-2.220803144
20558,WSNCl5,-1.087548265
20559,Rb4NpS2ClO10,-2.552729992
20560,K2Pr4Cl9O2,-2.810453867
20561,SNClO,-0.707795366
20562,SeS4(NCl)3,-0.34416484
20563,HoTe2ClO5,-2.258870378
20564,Y3Si2ClO8,-3.651125952
20565,PS2N3Cl2(OF)2,-1.116106665
20566,VS2N3Cl2,-0.707144855
20567,La3Si2ClO8,-3.674867313
20568,K2Hg2SCl4O3,-1.675164131
20569,SnP2(Cl5O)2,-1.524561359
20570,PS2N3(Cl2O)2,-0.799009936
20571,P2RhClF6,-2.397543562
20572,Na9ZrP4ClO16,-2.715562684
20573,P2IrClF6,-2.362294637
20574,Se2S(NCl)2,-0.173678001
20575,SeS4N3Cl5,-0.463100653
20576,Nd2Ta2Cl2O7,-3.450140496
20577,La4S3NCl3,-2.606793994
20578,MoS3(NCl4)2,-0.831735634
20579,K3ZnNCl4O3,-1.796788173
20580,ZrS4(N2Cl3)2,-0.886771037
20581,SbTeClO3,-1.563056471
20582,Pr3Si2Cl3O7,-3.389772201
20583,CoF3,-2.15471961
20584,TiPCl7O,-1.823425193
20585,K2NClO3,-0.875067416
20586,Nd4S3NCl3,-2.458123791
20587,RbZnSClO4,-2.130418225
20588,Cu3P8(S2Cl)3,-0.586365054
20589,Nd2Ti3(ClO4)2,-3.509864604
20590,Pr2Ta2Cl2O7,-3.444269793
20591,FeS4N4Cl5,-0.493240239
20592,SbSNCl5,-0.865862688
20593,Nd3Si2ClO8,-3.615846808
20594,KHg2S(ClO)3,-1.542740169
20595,Nd3SiS6Cl,-2.161474215
20596,K2Nb3Cl7O5,-2.447392822
20597,HoTeClO3,-2.61364372
20598,LaSClO4,-2.810730809
20599,La2TaCl3O4,-3.380048374
20600,PS2N(Cl3O2)2,-1.229075437
20601,P2NCl5O,-1.289921399
20602,TlRe3(S2Cl)2,-1.093571053
20603,NdSn2P10Cl37O12,-1.714264541
20604,ZnCu3H6(ClO3)2,-1.220987559
20605,Nd5Te2Cl3O10,-3.046780617
20606,TaP4(SCl)5,-1.061162327
20607,SnSe2(Cl4O)2,-1.144194937
20608,NbPCl8O,-1.678478972
20609,K2RuN3Cl3O5,-1.328120921
20610,Rb3Hg2S3ClO12,-1.971391394
20611,SbTe7SXeCl(OF4)9,-2.123049628
20612,K4Ru2Cl10O,-1.691948457
20613,NbSe2SN2ClF6,-1.829329065
20614,Dy3Si2Cl5O6,-3.236470018
20615,K2CuS(ClO2)2,-1.964540786
20616,RePbClO4,-1.994000293
20617,GaS5N5Cl4,-0.527912154
20618,K2NaS2ClO6,-2.211254909
20619,K3Hg3S2Cl5O6,-1.715061529
20620,SbI(ClF3)2,-2.025361975
20621,TiS4(NCl)4,-0.776693403
20622,Pr3Nb(Cl3O2)2,-3.058168623
20623,TaSCl7O,-1.601411283
20624,SnP2Cl8O3,-1.673836348
20625,MoSeS2Cl5,-1.056240926
20626,NbP4(SCl)5,-1.014099741
20627,SiPb4(ClO)4,-1.988045217
20628,NbP4(S2Cl)5,-0.964266248
20629,Sr2CuClO2,-2.512425552
20630,SeS2(NCl)2,-0.285957747
20631,TiNb3Cl7O2,-2.095893022
20632,Nd6S4N3Cl,-2.11777166
20633,K4Cu4Cl10O,-1.484280075
20634,NbTlCl4O,-1.926338273
20635,Co2TeCl2O3,-1.378932009
20636,Sr2MnClO3,-2.742230136
20637,FeWClO4,-1.886664025
20638,GdMoClO4,-2.723998384
20639,LaP5Cl18O17,-1.425303191
20640,Sm2MnTe5Cl2O13,-2.152954114
20641,TeWNCl4F5,-1.555203146
20642,K2MoCl5O,-1.877857576
20643,Te2MoCl4O,-1.09333442
20644,KMo2Cl7O2,-1.648508299
20645,DyMoClO4,-2.747167628
20646,TmMoClO4,-2.743837358
20647,ErMoClO4,-2.742935882
20648,Ni5Te4(ClO6)2,-1.251059484
20649,HoMoClO4,-2.74484512
20650,K3WS3ClO,-1.559948582
20651,SmMoClO4,-2.738889929
20652,LaWClO4,-2.800059907
20653,SrVClO3,-2.746410943
20654,SmMnSe2ClO6,-2.111676402
20655,ZrMo2Se8(Cl7O)2,-1.133471014
20656,Fe2PClO4,-2.225456708
20657,TlMo2Cl7O2,-1.461679965
20658,FeN3ClO3,-0.488112639
20659,Pr3W(ClO2)3,-3.112296341
20660,Pb3WCl2O5,-1.838454614
20661,RbMoPClO5,-2.40718786
20662,Mn2PClO4,-2.414596254
20663,Sr5Cr3ClO12,-2.70588972
20664,K4W2Cl10O,-1.813036762
20665,K2Cr2HgCl2O7,-1.743155435
20666,SnS8(N2Cl)4,-0.335526075
20667,RbCrClO3,-1.821718756
20668,VPbClO3,-2.05914156
20669,Cu3NiH6(ClO3)2,-1.153686305
20670,KWNClF5,-2.25336446
20671,LiFeMoClO4,-2.056777518
20672,MoP(Cl3O)2,-1.546785765
20673,CsMn2V2ClO7,-2.321918172
20674,K4V5CuClO15,-2.287893758
20675,K2Cr3(ClF3)2,-2.666680685
20676,MoPb3Cl2O5,-1.810274861
20677,YMoClO4,-2.73273699
20678,Sr2NiSe2(ClO3)2,-2.029242199
20679,KMoPClO5,-2.40301856
20680,Te3W2Se4(Cl4O)2,-0.941775782
20681,Cr4Si2Cl2O7,-2.418144093
20682,TbMoClO4,-2.748156053
20683,LuMoClO4,-2.743695992
20684,YbCs2NaCl6,-2.203295553
20685,Rb2NaTmCl6,-2.460583023
20686,UHg3(TeCl3)2,-1.290053498
20687,Cs2LiYCl6,-2.484659461
20688,MoPCl5O3,-1.61262095
20689,Co7Mo6,-0.016984867
20690,GaSe2NCl6,-0.840399702
20691,GaHg2SbCl4,-1.048719588
20692,Rb2Hg2PdCl8,-1.395168954
20693,Nb6Tl2VCl18,-1.592069592
20694,CsRb(MnCl3)2,-1.835057365
20695,WSe6ICl6,-0.657949869
20696,CsErTa6Cl18,-1.900247804
20697,SnHg6(P2Cl3)2,-0.665377862
20698,FeSe2NCl6,-0.690064771
20699,TbCs2NaCl6,-2.499215383
20700,GdWClO4,-2.733252213
20701,LaCo2,-0.044889151
20702,Pu2Co17,0.001016139
20703,K6InTe4Cl,-1.172515588
20704,DyCo3,-0.178639219
20705,K3SnIrCl8,-1.694652784
20706,NdCo5,-0.02884124
20707,NaW6NCl18,-1.311852239
20708,La2Co3,-0.089647079
20709,K2OsNCl5,-1.299399195
20710,FeTe2ClO5,-1.564389039
20711,K2Sr(NbCl3)6,-1.905992706
20712,Cs2Nb6PbCl18,-1.783311626
20713,Er2Co7,-0.17836297
20714,CsLaZr6FeCl18,-2.216020064
20715,CoI2,0.025256672
20716,Dy2Co17,-0.096406674
20717,Tl2Hg2PdCl8,-1.087753777
20718,CuHgSeCl,-0.492799112
20719,RbNb3CuCl9,-1.638132222
20720,GaSe3N2Cl5,-0.593372539
20721,Tb8CrTe13Cl,-1.348343782
20722,Cs2LiLuCl6,-2.485279239
20723,TiHg6P4Cl7,-0.82962766
20724,RbNb3VCl11,-1.75670258
20725,NbP2Se2Cl5,-1.074481022
20726,TaPNCl7,-1.459156922
20727,ZrHg3(SeCl3)2,-1.315951563
20728,NbP2NCl12,-1.338697652
20729,SbSe3N2Cl7,-0.545158296
20730,Y2Co17,-0.091029633
20731,VINCl3,-0.989582578
20732,LiNb3InCl9,-1.663979852
20733,CsLu(NbCl3)6,-1.896062646
20734,ZrP2NCl11,-1.490239481
20735,K2Mn(NbCl3)6,-1.733485017
20736,Cs2KScCl6,-2.454303965
20737,TaP2Se2Cl5,-1.143160058
20738,PrCo3,-0.012105225
20739,Co2Sn,0.159522023
20740,HfHg3(SeCl3)2,-1.342481369
20741,Cs2LiInCl6,-2.014403003
20742,SbS8Cl5O,-0.945800692
20743,CsRe(Cl2O)2,-1.731593936
20744,SbSeCl7O,-1.099634802
20745,ReP(Cl2O)3,-1.546576018
20746,NdCu3Se2ClO8,-1.601467745
20747,MoSeCl7O,-1.149529881
20748,WSeS2Cl5,-1.051559916
20749,Y8Co5,-0.1693119
20750,Dy12Co7,-0.181312492
20751,Ta2Co,-0.25051029
20752,VP2NCl10O,-1.25645936
20753,CsCu2ICl2,-1.077290164
20754,EuCs2KCl6,-2.316303346
20755,Cs2NaSmCl6,-2.486316016
20756,Cs2NaErCl6,-2.501323673
20757,TbCs2KCl6,-2.517430185
20758,Cu2Te2Cl2O5,-1.225914102
20759,YCu3Se2ClO8,-1.608627555
20760,U6Co,-0.028929331
20761,MoP2NCl12,-1.166881819
20762,Cs7Np3(Cl2O)6,-2.594940505
20763,SbS3N2Cl7,-0.766442773
20764,Fe3Co,-0.038676019
20765,Fe9Co7,-0.057645127
20766,Fe11Co5,-0.050471864
20767,Co2H34N12Cl3O10,-0.829540882
20768,Mo8P9H56N12ClO56,-1.595052265
20769,CuH12N2(Cl2O)2,-1.004441212
20770,CsCrClO3,-1.84073145
20771,Sr2CoSe2(ClO3)2,-2.095428891
20772,Cs2Pd(ICl2)2,-1.355895423
20773,Rb6LiNd11Se12(Cl4O9)4,-2.39169118
20774,TiCo3,-0.259050868
20775,Co5Te4Cl4O11,-1.428259928
20776,NbSNCl6,-1.23399315
20777,EuMoClO4,-2.442987421
20778,K2PdN2(ClO2)2,-1.333643623
20779,Yb3Si2ClO8,-3.001155176
20780,SnS16(Cl2O)2,-0.917977379
20781,InCu6ClO8,-1.172987251
20782,Y3Co2,-0.152141399
20783,Sr2VClO4,-3.063160386
20784,TeMoCl7O,-1.278840975
20785,Te3WICl6,-0.850793812
20786,MoPN(Cl3O)2,-1.286697961
20787,Cs5Nb2S4Cl9,-1.916824069
20788,Co2PClO4,-2.000706803
20789,Ho3Co,-0.161430963
20790,Nb6Co7,0.643726482
20791,Cs3V4Te2ClO14,-2.220978879
20792,P3SN4Cl5O,-0.904736758
20793,Zr2Co,-0.251130767
20794,Se2SN2Cl,-0.029608251
20795,V3Pb5ClO12,-2.076572507
20796,HfMo2Se8(Cl7O)2,-1.145228693
20797,Sr2FeClO3,-2.710838351
20798,Fe3Pb4ClO8,-1.646891431
20799,VN2(Cl3O)2,-0.937880355
20800,TmCo2,-0.257758467
20801,ZnH8(N2Cl)2,-0.630417734
20802,ReH8(NCl3)2,-0.95823422
20803,Cs2CrH2Cl5O,-1.810223343
20804,HgH12(ClO7)2,-1.052262718
20805,FeTeS2N2Cl5,-0.704872101
20806,EuSeClO3,-2.125342974
20807,Cs2MnV2(ClO3)2,-2.315598471
20808,La3Co,-0.091216056
20809,Fe13Co3,-0.025466232
20810,V2Cu3Pb(ClO4)2,-1.570780292
20811,SrH2Cl2O,-1.844206866
20812,SrH4(ClO)2,-1.877346845
20813,Cu6PbSe2Cl5O8,-1.076469407
20814,Li4H3ClO3,-1.900558438
20815,HPbClO,-1.510951877
20816,CuH4Pb2(ClO2)2,-1.376119539
20817,H8Pd(NCl3)2,-0.88406012
20818,CuHClO,-1.033682706
20819,HgH2NCl,-0.584205195
20820,CoH6(NCl)2,-0.721685337
20821,Cs3VH8(Cl3O2)2,-1.712924892
20822,Rb6LiPr11Se12(Cl4O9)4,-2.388218268
20823,Co5Se4(ClO6)2,-1.33037025
20824,Fe5Te6(ClO9)2,-1.619202301
20825,Dy3Co,-0.152546871
20826,SrCo2Te3(ClO4)2,-1.767962401
20827,SrNi2Te3(ClO4)2,-1.659512034
20828,ReNCl4O3,-1.168211355
20829,Ni7Te6(ClO9)2,-1.273727068
20830,Eu5P3ClO12,-3.258824072
20831,VP2Cl7O4,-1.752187616
20832,YbMoClO4,-2.323511934
20833,Re2N2ClF9,-1.976352205
20834,SbS5N5Cl6,-0.505743772
20835,SbP2SN3Cl10,-0.921306892
20836,MoPNCl6O,-1.198203794
20837,Cs4TlSbCl12,-1.735409547
20838,VSb2NCl14,-1.13613687
20839,MoPCl8O,-1.373534214
20840,Mn7FeCl3O10,-1.932864419
20841,CuS4(N2Cl)2,-0.219869332
20842,Re2Te4Cl22O,-1.082033882
20843,KCu7TeS5ClO24,-1.610169446
20844,Sr5Re3ClO15,-2.792415205
20845,ScNb6Cl13O3,-2.093708075
20846,Eu5Si(Cl3O2)2,-3.034634229
20847,Cs2UTa6(Cl5O)3,-2.081342395
20848,LaNb2CuClO7,-2.800851007
20849,TeS2N3Cl5,-0.532211892
20850,Te2S4(NCl3)3,-0.710292412
20851,HgS4(NCl)3,-0.437769327
20852,TaP2NCl12,-1.387219521
20853,Nb3Te4ClO15,-2.199129189
20854,K2PtN4(ClO4)2,-1.168727685
20855,NbCo2,-0.136159087
20856,MoSe2Cl4O,-1.055736905
20857,Cu4W(SCl)4,-0.520844441
20858,SNClO4,-0.620363316
20859,YbSeClO3,-2.026930804