id,Composition,FormationEnergy
5960,KAuBr4,-0.749013757
5961,B3H5,-0.129345673
5962,B5H9,-0.146763117
5963,LiAuS,-0.943802147
5964,LiAuC2,0.230794221
5965,Tl2Au4S3,-0.463559762
5966,Rb5Au3O2,-0.870194398
5967,Na2B29,0.0032533
5968,Nd2P3Au,-1.024328964
5969,AuSO4,-1.436537962
5970,P2PbAu2,-0.138564335
5971,Sb2(AuF6)3,-1.987797012
5972,AuBrF6,-1.309756535
5973,YAuO2,-2.585763851
5974,TlAuF6,-1.746994115
5975,Y2Au5F21,-2.237536007
5976,Sr2AuN,-0.734536212
5977,DyInAu2,-0.714054305
5978,ErInAu,-0.737670068
5979,ErInAu2,-0.70545623
5980,ErPbAu,-0.661019777
5981,Li2GaAu,-0.509601861
5982,HoInAu2,-0.709707725
5983,HoSnAu,-0.8507991
5984,Li2InAu,-0.479912858
5985,LuInAu2,-0.686478873
5986,ScInAu2,-0.628978998
5987,K(SnAu2)2,-0.247560055
5988,Li2PbAu,-0.405788853
5989,Li2SbAu,-0.539000662
5990,Li2SnAu,-0.526818577
5991,Li2TlAu,-0.361249795
5992,TbPbAu,-0.693482262
5993,Rb4Sn2Au7,-0.353830362
5994,USnAu2,-0.155188184
5995,B5H11,-0.140118043
5996,B2O3,-2.813264687
5997,B17F27,-2.409198285
5998,B5F6,-2.106701041
5999,PAuS4,-0.614046007
6000,RbAuBr4,-0.769236553
6001,KAuI3,-0.666934327
6002,Ba2Tl7Au,-0.290261982
6003,BaBiAu,-0.285133883
6004,SrBiAu,-0.339456507
6005,YbBiAu,-0.287336883
6006,Er2SnAu2,-0.845155335
6007,Pr(SiAu)2,-0.618867348
6008,SrSnAu,-0.746160383
6009,Eu2Sn5Au2,-0.524200618
6010,LiSn4Au3,-0.279168373
6011,PrSnAu,-0.833312862
6012,TbSnAu,-0.830938734
6013,Er(SiAu)2,-0.519432402
6014,Na4TlAu,-0.19349495
6015,K3PbAu5,-0.316918382
6016,K4GaAu8,-0.345533954
6017,Li2Sn2Au,-0.447198814
6018,SnP7Au3,-0.106145639
6019,KAuSe5,-0.337738803
6020,B36O5,-0.67429068
6021,Nd4Au2O9,-2.783555832
6022,RbAuF4,-2.086460596
6023,HfB,-0.419581141
6024,Au(OF3)2,-1.095277642
6025,KTeAu,-0.683828167
6026,KAuS5,-0.811128294
6027,MgB4,-0.140514813
6028,CrB2,-0.340448588
6029,La2Au5F21,-2.279210799
6030,YbB6,-0.462414987
6031,GdB2,-0.470718963
6032,Rb3AuO,-0.83087766
6033,NbB2,-0.693475918
6034,Pr6Fe13Au,-0.063403046
6035,Co2B,-0.240537366
6036,Cs3AuO,-0.907587484
6037,PuB6,-0.368676618
6038,B8Ru11,-0.147995825
6039,Nd(SiAu)2,-0.614419575
6040,Cs7Au5O2,-0.731135697
6041,Rb7Au5O2,-0.705853499
6042,Cs3Ge4Au,-0.291036964
6043,USb2Au,-0.275975806
6044,Cs4Sn2Au7,-0.375912528
6045,Ce(SiAu)2,-0.57605082
6046,B8O,-0.607296454
6047,B4C,-0.002638316
6048,KAuF4,-2.089365997
6049,YbSbAu,-0.878810752
6050,B13N2,-0.254822577
6051,BS2,-0.837596861
6052,TeAuBr8,-0.261629313
6053,Er2Au5F21,-2.245274525
6054,Tb2Au5F21,-2.252518393
6055,Ho2Au5F21,-2.24763413
6056,Pu(SiAu)2,-0.395765887
6057,BiAuBr6,-0.466290122
6058,Yb2PbAu2,-0.829355168
6059,LaCdAu,-0.673607742
6060,ThB4,-0.623286144
6061,Na3In2Au,-0.244618455
6062,LaH6Au3C6(N2O)3,-0.581396981
6063,Fe23B6,-0.173828896
6064,TlSbAu,-0.094967754
6065,ZnAu2(CN)4,0.103793352
6066,U(SiAu)2,-0.228544923
6067,Sb4Au(Xe2F11)2,-2.165128475
6068,Sb3Au3F22,-2.136624701
6069,KGeAuS3,-0.949897603
6070,MgSnAu,-0.442361978
6071,RbNa2AuO2,-1.311642644
6072,KAu(NO3)4,-1.025014829
6073,B12S,0.304941769
6074,CsAu(SO4)2,-1.81885101
6075,K6NaAu2IO8,-1.460704898
6076,RbAu(SO4)2,-1.807992627
6077,PH9AuC3ClO3,-0.75603223
6078,AuCS2Cl3,-0.54259437
6079,AuSCl7,-0.772335394
6080,Rb2SbAuS4,-0.988677605
6081,Bi2Au5F21,-1.767619408
6082,K2Sn(AuS2)2,-0.979910029
6083,RbAu(SeO4)2,-1.177373216
6084,KAu(IO3)4,-0.931459026
6085,NaBi2AuO5,-1.428539351
6086,KBa4Au(CO)4,-1.063169231
6087,Cd(AuF6)2,-1.498015852
6088,Gd2Au5F21,-2.227747873
6089,CsK2AuO2,-1.280562219
6090,Na2Bi5AuO11,-1.465979812
6091,K2Cd(AuS)4,-0.820560471
6092,Ba(AuF6)2,-1.82327518
6093,K5Au(IO)2,-1.3902296
6094,PAuClF3,-2.045812232
6095,RbCdAuS2,-0.968177239
6096,RbSb2Au3S5,-0.684197304
6097,KNa2AuO2,-1.335030667
6098,Bi4Au2O9,-1.3181995
6099,Au2Se3O10,-0.918582866
6100,AuS3(O3F)3,-1.787744457
6101,Ba4NaAuO8,-2.040775097
6102,AuSeClO3,-0.91925076
6103,CsCdAuS2,-0.995022705
6104,LiLa4AuO8,-3.169084094
6105,TeH12AuC4S3N,-0.305237642
6106,AuN5O14,-0.793333933
6107,U2AuF11,-3.297889103
6108,NaAu(SO4)2,-1.774811786
6109,KP2Au5S8,-0.645813349
6110,KAu(SO4)2,-1.804972616
6111,AuS5N5Cl4,-0.292135898
6112,Cs2Sn(AuS2)2,-1.012851518
6113,AuCClO,-0.775021687
6114,YbAu2F9,-2.098149873
6115,NdSnAu,-0.837313785
6116,Li2BiAu,-0.440281468
6117,BRh,-0.382617718
6118,YSnAu,-0.829893543
6119,TbInAu2,-0.715853134
6120,KAuN12,0.154702611
6121,BiAuCl6,-1.089603087
6122,Nd2B5,-0.512968329
6123,CaGaAu3,-0.581881387
6124,K(In3Au2)2,-0.282264203
6125,KNiAu3(CN)6,0.091014011
6126,CsAuSe3,-0.4999243
6127,B4Rh5,-0.366307412
6128,Dy5BiAu2,-0.320298435
6129,NdInAu2,-0.692337444
6130,TmB4,-0.580849947
6131,Rb(In3Au2)2,-0.272753294
6132,DyB6,-0.401622037
6133,RbAu(CN)2,-0.203539892
6134,YbInAu2,-0.700823555
6135,SmInAu2,-0.703560868
6136,RbAuI3,-0.68649993
6137,Er5BiAu2,-0.300457781
6138,CsAuN12,0.140100459
6139,KCoAu3(CN)6,0.092968592
6140,Ni2Sn4Au,-0.214852199
6141,Ho(SiAu)2,-0.53656426
6142,Tb5SbAu2,-0.416202998
6143,H3AuC2NCl,-0.2326363
6144,SiB3,-0.040791748
6145,TlAu(CN)2,0.14259344
6146,V3B4,-0.816006801
6147,HoB4,-0.595360336
6148,TlPAuSe3,-0.206106821
6149,2-Feb,-0.049440121
6150,Ni4B3,-0.279155701
6151,RbAuCl4,-1.322744121
6152,Ce(SiAu2)2,-0.451198006
6153,CsAuBr3,-0.911540587
6154,Tb(SiAu)2,-0.567945419
6155,CaCdAu,-0.630624619
6156,Ce3Sb3Au2,-0.866581672
6157,Cs3Au2Br11,-0.843782795
6158,CoAu2(CN)4,0.247480727
6159,K(Sn3Au2)2,-0.246101586
6160,Tb5BiAu2,-0.325817177
6161,NaAuCl4,-1.21570096
6162,Ba(SbAu)2,-0.608133
6163,Na2Sn3Au,-0.279698177
6164,Sm2B5,-0.555087735
6165,Y(SiAu)2,-0.559349828
6166,Sr(InAu)2,-0.561904772
6167,PrInAu2,-0.683376942
6168,YbGeAu,-0.828132371
6169,Sr4In13Au9,-0.476232942
6170,YbInAu,-0.752992778
6171,K(SnAu)3,-0.288559976
6172,B5W2,0.264117059
6173,YbSnAu,-0.795912504
6174,RbAuN12,0.148346882
6175,Cs2NaAu3(CN)6,-0.205078366
6176,TmB6,-0.347012771
6177,HoB6,-0.384179751
6178,LuB4,-0.559087099
6179,Cs3AuO2,-1.243036654
6180,B2S3,-0.82708899
6181,CsAuF4,-2.076241769
6182,Bi8SbAuBr9,-0.465532938
6183,CsTeAu,-0.725387482
6184,HfInAu2,-0.393562979
6185,CsAuSe,-0.78330613
6186,B13C2,-0.072415974
6187,Pr2P3Au,-1.029291414
6188,PuB2,-0.370257823
6189,GdMgAu,-0.672807102
6190,Dy5SbAu2,-0.411406182
6191,ZrInAu2,-0.45559513
6192,Sr(InAu)3,-0.483843314
6193,MnB2,-0.283570772
6194,MnSbAu,0.047903473
6195,PH9AuC3S3Cl,-0.416959237
6196,Eu(InAu)3,-0.462583482
6197,Nd(In2Au)2,-0.424906788
6198,Na2In5Au6,-0.286420653
6199,Pr(In2Au)2,-0.431423315
6200,Na8In6Au11,-0.347571053
6201,Rb3Pb4Au,-0.139798978
6202,LaGeAu,-0.881681717
6203,Na4CoAuO5,-1.471500408
6204,B2O,-0.7122608
6205,Ni(AuF4)2,-1.574315459
6206,MnB,0.011081797
6207,Bi2AuO5,-1.260899306
6208,UB4,-0.508185393
6209,PrInAu,-0.731955003
6210,YInAu,-0.761627489
6211,TiInAu2,-0.285681339
6212,SmInAu,-0.744756871
6213,NdInAu,-0.736208557
6214,YPbAu,-0.68710926
6215,ThInAu2,-0.640450902
6216,Ce2P3Au,-1.020591946
6217,Ca2In4Au3,-0.536328646
6218,SiBAu,0.908381541
6219,TaAuBr,1.114389567
6220,Bi2OsAu,0.698051424
6221,B9C,0.309925549
6222,BH3,-0.144370835
6223,V3AuN,2.241388366
6224,CeInAu2,-0.61991937
6225,YB4,-0.590638891
6226,Co23B6,-0.138667536
6227,EuIn2Au,-0.532401498
6228,Cr3AuO8,-1.579454976
6229,KAuC2(SN)2,-0.344204759
6230,RbAuC2(SN)2,-0.349394016
6231,LaSb2Au,-0.782137436
6232,AuXe2F17,-0.938348193
6233,Ca4In3Au10,-0.618116907
6234,AuC5(SCl)4,0.353315904
6235,Ta5AuS,-0.415476329
6236,KAu(CN)2,-0.216110501
6237,La12Au3I13,-1.187441035
6238,Li5AuO4,-1.720896829
6239,Ba2PtAu,-0.724138144
6240,Bi9AuBr9,-0.447738151
6241,K3B17,0.132565592
6242,BBr,-0.345138081
6243,K11B62,0.13712989
6244,KH2Au(Cl2O)2,-0.947268085
6245,H12AuC4N,-0.167294869
6246,BH11AuC4IN2,-0.265695347
6247,SmB6,-0.455482474
6248,RbTeAu,-0.682138888
6249,H16AuC6S2N4ClO4,-0.423374069
6250,B5H7,-0.171768722
6251,KAuS,-0.986434133
6252,CrAuS2,-0.83389387
6253,UGeAu,-0.181656625
6254,H8AuC2S2N4ClO4,-0.557812613
6255,B5Mo2,0.079989941
6256,Na5Te2H36AuO28,-1.449742503
6257,LaB4,-0.571700344
6258,H6AuBrN2,-0.541586756
6259,Ca(SiAu)2,-0.480769684
6260,Sr(SiAu)2,-0.492337092
6261,NaAuF4,-2.022042841
6262,H8AuC2S2BrN4,-0.487184488
6263,BPd2,-0.272028349
6264,Li3AuO3,-1.678661094
6265,RbAuO2,-1.147800194
6266,CuAuO2,-0.676067988
6267,LiMgSnAu,-0.407490681
6268,B84O11,-0.636246244
6269,CeMgAu,-0.550874563
6270,Sb2H4AuF16,-2.181944553
6271,NaH4Au(Br2O)2,-1.006229454
6272,MgB2,-0.133240789
6273,Na3AuO3,-1.384772751
6274,SiB6,0.453224673
6275,Na2SbAu,-0.46391418
6276,YB12,-0.243979445
6277,BW,-0.368209515
6278,ReB3,0.744456151
6279,Ca(GeAu)2,-0.440139552
6280,TmB2,-0.652822729
6281,SmB4,-0.586959094
6282,Pd(AuF4)2,-1.399099238
6283,Pr3Sb4Au3,-0.885499535
6284,PuSnAu2,-0.415169394
6285,LaHgAu2,-0.623441509
6286,LiTmAu2,-0.727016661
6287,LiGeAu2,-0.319063376
6288,LiDyAu2,-0.71586749
6289,CeBiAu2,-0.5785325
6290,LiGaAu2,-0.429653684
6291,Pu2BiAu,-0.341208076
6292,LiPdAu2,-0.342996152
6293,LiZnAu2,-0.42453996
6294,BPt3,-0.026060534
6295,Ca2SbAu,-0.919653342
6296,CaInAu2,-0.604107348
6297,PaCdAu2,-0.364083818
6298,Cu2PdAu,-0.113689865
6299,Sc2TcAu,-0.503571519
6300,LiErAu2,-0.722911268
6301,Ba2SbAu,-0.93373545
6302,LaGaAu2,-0.629745203
6303,LaPbAu2,-0.663052764
6304,LiHoAu2,-0.719160942
6305,PuHgAu2,0.287620398
6306,LaCdAu2,-0.660172137
6307,Sr2PtAu,-0.751411807
6308,PrBiAu2,-0.615731155
6309,PrSnAu2,-0.682647197
6310,PaPbAu2,-0.267780167
6311,LiScAu2,-0.682480995
6312,PaHgAu2,-0.30319216
6313,PaInAu2,-0.413908515
6314,PaSnAu2,-0.4079975
6315,PaTe2Au,-0.40650738
6316,PaTlAu2,-0.265085155
6317,PaZnAu2,-0.34394223
6318,PaB3,-0.204106878
6319,KPAuSe3,-0.470880051
6320,PuCdAu2,0.227003636
6321,ThGaAu2,-0.594457346
6322,PmBiAu2,-0.612827792
6323,PmCaAu2,-0.812808049
6324,PmCdAu2,-0.646290999
6325,PmGaAu2,-0.628986461
6326,PmGeAu2,-0.556301113
6327,PmHgAu2,-0.583282924
6328,PmInAu2,-0.697440317
6329,PmLiAu2,-0.676391589
6330,PmMgAu2,-0.745250028
6331,PmNaAu2,-0.598212993
6332,Ba2BiAu,-0.86297708
6333,PmSbAu2,-0.636234794
6334,PmSnAu2,-0.694836134
6335,PmZn2Au,-0.453248372
6336,PmB3,-0.098130106
6337,Pm2GeAu,-0.734471128
6338,Pm2IrAu,-0.701291409
6339,InPd2Au,-0.411477138
6340,Pm2RuAu,-0.462008822
6341,Ho2OsAu,-0.506215846
6342,Ca2PdAu,-0.746771933
6343,TbSnAu2,-0.694690829
6344,ZnCuAu2,-0.140603665
6345,HoMgAu2,-0.786227009
6346,NdTlAu2,-0.563742264
6347,NdSnAu2,-0.688174444
6348,PaGaAu2,-0.389525216
6349,LiSc2Au,-0.424057683
6350,Yb2PdAu,-0.916778487
6351,TbLiAu2,-0.710729757
6352,Zn2RhAu,-0.301247875
6353,MgZrAu2,-0.605824551
6354,MgZnAu2,-0.424845039
6355,Mg2RhAu,-0.55596865
6356,Mg2PdAu,-0.676845443
6357,CaB6,-0.409581287
6358,NaCeAu2,-0.501451286
6359,NaCaAu2,-0.584009626
6360,NaLaAu2,-0.628709998
6361,NaSmAu2,-0.596218134
6362,NaNdAu2,-0.594384518
6363,NaPrAu2,-0.592564921
6364,NaSrAu2,-0.570136876
6365,MgCdAu2,-0.400774071
6366,TmMgAu2,-0.789981075
6367,TlPd2Au,-0.17274122
6368,Tm2OsAu,-0.545397149
6369,Lu2ZnAu,-0.627255968
6370,YbZnAu2,-0.62717674
6371,Pm2SnAu,-0.720924239
6372,YSnAu2,-0.686508313
6373,YCdAu2,-0.671042153
6374,Pm2SiAu,-0.619616961
6375,Li2CdAu,-0.425650705
6376,NdPbAu2,-0.613233186
6377,LiSnAu2,-0.384441022
6378,Li2HgAu,-0.458190515
6379,TiZnAu2,-0.347416052
6380,YbCdAu2,-0.671432692
6381,YbGaAu2,-0.651027144
6382,Yb2BiAu,-0.89134566
6383,YbPd2Au,-0.70897654
6384,YbNaAu2,-0.665936279
6385,LuMgAu2,-0.789653431
6386,Li2ZnAu,-0.390871875
6387,TmCdAu2,-0.665392724
6388,YbPmAu2,-0.888363702
6389,LiZrAu2,-0.534548502
6390,LiThAu2,-0.593603775
6391,YbSnAu2,-0.690640855
6392,CaCdAu2,-0.570715835
6393,EuInAu2,-0.581313406
6394,Be2RhAu,-0.416758928
6395,TbMgAu2,-0.78006488
6396,GdCdAu2,-0.653136916
6397,YMgAu2,-0.781136734
6398,ThSnAu2,-0.642836025
6399,Li2PdAu,-0.510056405
6400,CeCdAu2,-0.579410092
6401,DySnAu2,-0.689606305
6402,EuCdAu2,-0.557665174
6403,K3P2AuSe8,-0.56618859
6404,LaSnAu2,-0.727474017
6405,EuSnAu2,-0.598440569
6406,LiCd2Au,-0.340866225
6407,Sr2SbAu,-0.936639838
6408,PrCdAu2,-0.633360525
6409,Sr2BiAu,-0.856606578
6410,LiGdAu2,-0.682676451
6411,LiZn2Au,-0.363664195
6412,LiInAu2,-0.418002945
6413,Be2RuAu,-0.263485991
6414,CeSnAu2,-0.653068407
6415,K3InAu5,-0.330887984
6416,ThCdAu2,-0.600147375
6417,CeTlAu2,-0.489981857
6418,Pr3Sn5Au6,-0.617163476
6419,ThPbAu2,-0.539531085
6420,Sc2CuAu,-0.534062392
6421,Ca2BiAu,-0.83269197
6422,LaTlAu2,-0.610004957
6423,LiYAu2,-0.710527473
6424,DyCdAu2,-0.673390835
6425,RbUAuSe3,-0.995688452
6426,LaZnAu2,-0.590413592
6427,RbUTe3Au,-0.716189652
6428,Rb2TlAu3,-0.276845472
6429,SmZnAu2,-0.59110828
6430,SmMgAu2,-0.745683874
6431,SmCdAu2,-0.65507455
6432,LiLuAu2,-0.731591605
6433,SmPbAu2,-0.606262297
6434,LaInAu2,-0.711063837
6435,Mg(AuF4)2,-2.044979824
6436,ScB12,-0.211524301
6437,Sm2Au5F21,-2.248371172
6438,Cr3B4,-0.463841432
6439,RbAuS,-0.98659523
6440,ScSiAu,-0.744256258
6441,LuSiAu,-0.777150455
6442,YSiAu,-0.825933167
6443,Ca3AuN,-0.836053072
6444,La4Au2O9,-2.857021662
6445,ThSiAu,-0.775476233
6446,K4Ge2Au7,-0.349075695
6447,V2B3,-0.800516644
6448,NaGeAu,-0.309701193
6449,NaTeAu,-0.537082718
6450,K3Sb2Au3,-0.4725173
6451,Rb3Sb2Au3,-0.468085094
6452,EuGeAu,-0.72963709
6453,Ba(AuO2)2,-1.453903601
6454,Sr(AuO2)2,-1.487738251
6455,ScGeAu,-0.723323578
6456,LuGeAu,-0.7764247
6457,CsAu3S2,-0.727480875
6458,RbAu3Se2,-0.45431253
6459,CsAu3Se2,-0.486698661
6460,USiAu,-0.205002005
6461,K2PAuS4,-1.101976571
6462,Tl2PAuS4,-0.688922483
6463,BaB6,-0.409265567
6464,ZrInAu,-0.473690017
6465,TiAuCl,0.081361177
6466,TbB2,-0.531025923
6467,K2PAu,-0.492684232
6468,ZnAuO3,-0.169040681
6469,Zn3B,0.616321548
6470,Zn2PdAu,-0.382758235
6471,SmSnAu2,-0.692985385
6472,SmTlAu2,-0.567550433
6473,SmHgAu2,-0.589248533
6474,SmGaAu2,-0.633820631
6475,SmBiAu2,-0.605649183
6476,Si3B,0.909710765
6477,Sc2PdAu,-0.850314872
6478,Sc2RuAu,-0.679622049
6479,Sc2GaAu,-0.694428744
6480,ScZn2Au,-0.451722762
6481,La2IrAu,-0.705902119
6482,Sc2OsAu,-0.586129894
6483,LiSmAu2,-0.681107775
6484,ScCdAu2,-0.59699484
6485,Ho2RuAu,-0.608644911
6486,HoLuAu2,-0.880425718
6487,Lu2RuAu,-0.670948354
6488,Lu2TcAu,-0.449290589
6489,Nd2IrAu,-0.670863962
6490,Fe3B,-0.216459577
6491,Rb2HgAu,-0.227553925
6492,RbAuO3,-0.530640205
6493,Ge3B,0.99487261
6494,PrGaAu2,-0.600897881
6495,K3TlAu5,-0.297748209
6496,LiTm2Au,-0.43068792
6497,NaCd2Au,-0.203846449
6498,KP2AuS7,-0.812627835
6499,MgPdAu2,-0.441693166
6500,CaSnAu2,-0.593602513
6501,TbCdAu2,-0.672801117
6502,ZnPd2Au,-0.3369684
6503,NpSnAu2,-0.212907331
6504,HoCdAu2,-0.671880722
6505,LiMgAu2,-0.585734494
6506,NpCdAu2,-0.157519673
6507,HgPd2Au,-0.163869903
6508,ZrCdAu2,-0.452989205
6509,Yb2PtAu,-1.046182938
6510,NdCdAu2,-0.641933264
6511,NdBiAu2,-0.613602941
6512,NdZnAu2,-0.574759139
6513,EuHgAu2,-0.519025444
6514,Pr2IrAu,-0.633205917
6515,MgB7,-0.131878751
6516,SiB,0.385574297
6517,SiB4,0.249450555
6518,Sm2Au2O5,-1.750496004
6519,Sm2RuAu,-0.482975166
6520,Sn3B,0.933864148
6521,SnB,0.770914824
6522,Tc7B3,-0.319885649
6523,Tm2CuAu,-0.579047273
6524,Th3B,0.542949013
6525,YGaAu2,-0.655114571
6526,Sm3Sb4Au3,-0.862743389
6527,YbPrAu2,-0.874810208
6528,YbPbAu2,-0.613672863
6529,Yb3In3Ge2Au,-0.635163354
6530,Lu2HgAu,-0.670414635
6531,PbAuO3,-0.634900983
6532,Pm2PtAu,-0.927797431
6533,Na6Cd16Au7,-0.231716868
6534,LiBeAu2,-0.33271134
6535,HfMgAu2,-0.573699875
6536,Ga3B,0.742346672
6537,Er2PdAu,-0.896726412
6538,Er2ZnAu,-0.610341525
6539,Dy2IrAu,-0.836796032
6540,Dy3Sb4Au3,-0.817473514
6541,BC,0.499963295
6542,BaPAu,-0.877278238
6543,KAuSe,-0.749564651
6544,LaAuO2,-2.575839033
6545,HAuO2,-0.782142385
6546,LiAuO2,-1.244628829
6547,TlAuO2,-0.782382238
6548,FeAuO2,-1.280441738
6549,CrAuO2,-1.617489761
6550,BaAuO2,-1.790576146
6551,AuClO2,-0.58147312
6552,CsAuO2,-1.154904679
6553,AuO2F,-0.795142908
6554,MgAuO2,-1.692003447
6555,AuBrO2,-0.350977887
6556,CdAuO2,-0.910284129
6557,PdAuO2,-0.582811808
6558,BiAuO2,-1.130153386
6559,SrAuO2,-1.875115388
6560,NiAuO2,-0.695208207
6561,MnAuO2,-1.367424119
6562,VB,-0.850194543
6563,BOs,-0.239219931
6564,BSb,0.367676187
6565,CsAuO,-1.083669583
6566,Co2B4Mo,-0.398233981
6567,UCo3B2,-0.429401006
6568,VCoB3,-0.619165992
6569,YbCo3B2,-0.407132203
6570,ZrCo3B2,-0.555606375
6571,Tm3Ni7B2,-0.545531833
6572,DyBPd3,-0.630819747
6573,Lu(BRh)4,-0.578042933
6574,ErBPd3,-0.640104065
6575,Ce(FeB)4,-0.490709755
6576,UFe3B2,-0.419777271
6577,Ta36B4C35,-0.461918859
6578,GaBN2,-0.685327374
6579,BC2N,0.259551326
6580,B2CN,-0.425278861
6581,LaB2Ir3,-0.63450753
6582,ScBIr3,-0.642398463
6583,ScB4Ir3,-0.575023293
6584,ThB2Ir3,-0.691487064
6585,UB2Ir3,-0.496496336
6586,Mg3(Ni10B3)2,-0.312598304
6587,NdBPd3,-0.560694482
6588,Ni21(B3Sb)2,-0.26430706
6589,Tb(Ni2B)6,-0.39568086
6590,V5SiB2,-0.695423104
6591,TmNi4B,-0.513232899
6592,U2(Ni7B2)3,-0.319968813
6593,Zn3(Ni10B3)2,-0.282458916
6594,UB2Os3,-0.326317116
6595,Sc3BPb,-0.522173879
6596,TmBPd3,-0.644588162
6597,YbBPd3,-0.664184655
6598,Ti2ReB2,-0.832966564
6599,UB2Ru3,-0.461431913
6600,Y(BRu)4,-0.494487108
6601,Sc3SnB,-0.607147449
6602,Sc3TlB,-0.356742677
6603,Ca(BH)2,-0.2474
6604,HfBRh3,-0.787571406
6605,ScBPd3,-0.544641879
6606,ScBPt3,-0.640903383
6607,LaBPt3,-0.694259839
6608,YBPd3,-0.624771573
6609,YBPt3,-0.737461113
6610,LiBeB,-0.122851991
6611,B2S2O9,-2.208029286
6612,Ca2B2O5,-3.258705982
6613,Ce2B8O15,-3.065120458
6614,Ce4B14O27,-3.114499277
6615,CsB5O8,-2.835137062
6616,EuBN2,-1.228075891
6617,GaB3N4,-0.871942327
6618,Ga3BN4,-0.644178436
6619,La2B8O15,-3.122263259
6620,La4B10O21,-3.246938486
6621,Na2B4O7,-2.740500461
6622,RbB3O5,-2.797034759
6623,SrB4O7,-3.030619439
6624,YB2Rh3,-0.706106149
6625,PuB2Rh3,-0.24707325
6626,LuB2Ir3,-0.667368902
6627,DyB2Ir3,-0.674897809
6628,LuB2Rh3,-0.714740007
6629,HoB2Rh3,-0.715594851
6630,YbB2Rh3,-0.714836941
6631,NdB2Ir3,-0.62131992
6632,YbB2Ir3,-0.642299051
6633,TbB2Ir3,-0.672200587
6634,HoBC,-0.052593515
6635,DyB2Rh3,-0.713998361
6636,Ho2B4C,-0.577890474
6637,Er2B4C,-0.587912908
6638,Tb2B4C,-0.552205766
6639,Ca(BC)2,-0.332764969
6640,Sc2BC2,-0.571772407
6641,HoNi4B,-0.503209791
6642,YCo4B,-0.290413398
6643,CeBPt2,-0.868084655
6644,MgB4Os3,-0.231606688
6645,ScB4Os3,-0.456558362
6646,RbBSe3,-0.553779029
6647,Lu3BC3,-0.496527123
6648,ErBO3,-3.52065275
6649,DyBO3,-3.515513624
6650,La(BC)2,-0.441945282
6651,Pr(BC)2,-0.395853538
6652,Tb(BC)2,-0.449449506
6653,Er(BC)2,-0.442256478
6654,Tm(BC)2,-0.438842776
6655,Lu(BC)2,-0.423863699
6656,ErVB4,-0.731643124
6657,CaB4O7,-3.010462682
6658,Sr(BS2)2,-1.322221291
6659,Tb(BO2)3,-3.191134691
6660,Pr(BO2)3,-3.175629499
6661,UB2C,-0.383295343
6662,CeB2Ir3,-0.661536641
6663,PrB2Ir3,-0.602347509
6664,PrBPt3,-0.862575147
6665,NdBPt3,-0.880098052
6666,PrCo4B,-0.190326529
6667,BPO4,-2.743599779
6668,Sm(BO2)3,-3.183140364
6669,Gd(BO2)3,-3.166561913
6670,Ti6Si2B,-0.654085844
6671,HgB4O7,-2.427949026
6672,Lu(FeB)2,-0.471453723
6673,Ba(BIr)2,-0.486482361
6674,Tb(FeB)2,-0.433282092
6675,Tm(FeB)2,-0.44950938
6676,Y(FeB)2,-0.436219445
6677,CaB2F8,-3.541129895
6678,ZnB4O7,-2.701489662
6679,LiBF4,-3.271845235
6680,Mn5B2P,-0.47881717
6681,CuBS2,-0.676515195
6682,TbNi4B,-0.491493505
6683,ErNi4B,-0.508199719
6684,Lu5Si3B,-0.559019732
6685,Ho5Si3B,-0.54259449
6686,Dy5Si3B,-0.534643386
6687,SnB4O7,-2.629854108
6688,GdCo4B,-0.265199061
6689,Cd(BO2)2,-2.455984754
6690,YB4Rh,-0.603478489
6691,ErB4Rh,-0.625102764
6692,TmB4Rh,-0.628902359
6693,YbB4Rh,-0.503953947
6694,B6O,-0.80905747
6695,PrBPt4,-0.782683159
6696,NdBO3,-3.48169493
6697,YB2Pd7,-0.370502504
6698,CdB4O7,-2.668464846
6699,Ce3Co11B4,-0.378860203
6700,Ca(BO2)2,-3.103859608
6701,HfB4Ir3,-0.52217341
6702,LiBO2,-2.743482344
6703,MgB4O7,-2.945953796
6704,YbBO3,-2.825416997
6705,La(Ni2B)6,-0.402042997
6706,Yb2(NiB2)3,-0.426904442
6707,Dy3MnB7,-0.608013487
6708,Y3B7W,-0.580475282
6709,Ca(BIr)2,-0.669433774
6710,Er(BRh)4,-0.584840636
6711,Er3CrB7,-0.635993008
6712,Y3FeB7,-0.587497454
6713,Y(BIr)2,-0.731808022
6714,La2B4Rh5,-0.694008477
6715,Ho2Fe14B,-0.115974901
6716,NaBS2,-1.109649222
6717,KBS2,-1.217526994
6718,RbBS2,-1.219973955
6719,Nd(BOs)4,-0.385968238
6720,U(BRu)4,-0.425759154
6721,Ce(BRu)2,-0.538385885
6722,HoB2C,-0.53983359
6723,TmB2C,-0.55545497
6724,DyB2C,-0.531861054
6725,LuB2C,-0.559105185
6726,TbB2C,-0.520354712
6727,LuCo3B2,-0.538440616
6728,Fe2B4Mo,-0.388375257
6729,Y(BC)2,-0.292630653
6730,Tl2B2Se7,-0.230915403
6731,Rb2B2Se7,-0.523120964
6732,Sr3(BO3)2,-3.261476301
6733,Tl2B4O7,-2.487027901
6734,Dy2B4O9,-3.306534477
6735,Li3B7O12,-2.831064065
6736,Sr(Ni2B)6,-0.344837165