id,Composition,FormationEnergy
6737,Rb2B4O7,-2.775945406
6738,Er3Ni7B2,-0.533482304
6739,Ba(Ni2B)6,-0.309818826
6740,TmBO3,-3.216757654
6741,Ho4(B2O5)3,-3.393650724
6742,ErB2,-0.623383874
6743,Tl3B3S10,-0.776339289
6744,Hf9BMo4,-0.18243415
6745,Dy4(B2O5)3,-3.392413516
6746,Mg2B2O5,-3.038009078
6747,Dy3Ni7B2,-0.511071287
6748,Dy5B2C5,-0.435895544
6749,Ni3(BO3)2,-1.826203861
6750,VBO3,-2.732534915
6751,FeBO3,-2.363246906
6752,Mn3(BO3)2,-2.448720148
6753,CrBO3,-2.620575816
6754,Fe2B2O5,-2.385860373
6755,Co4B6O13,-2.376567244
6756,MnB4O7,-2.770050918
6757,Sc3InB,-0.405153187
6758,Mn(BW)2,-0.411533181
6759,GdBRh3,-0.754672918
6760,CeBPd3,-0.497828301
6761,EuBPd3,-0.50251495
6762,CeBPt4,-0.771059535
6763,Th2NiB10,-0.596844724
6764,CeBO3,-3.391250024
6765,DyCo3B2,-0.495936865
6766,Li2BPt3,-0.578075703
6767,Fe(BMo)2,0.557169639
6768,Ce(BO2)3,-3.132445975
6769,B2Mo2Ir,-0.397075399
6770,Ho(BC)2,-0.445401943
6771,SmFeB4,-0.524498749
6772,YCrB4,-0.655836742
6773,Lu4CoB13,-0.527638824
6774,Eu(BIr)4,-0.499507911
6775,La3InB,-0.180247324
6776,Li2BPd3,-0.461940733
6777,Dy(BC)2,-0.30317329
6778,NbCoB2,-0.605228427
6779,Ce(BC)2,-0.426630958
6780,GdBPd3,-0.604652654
6781,Eu(BIr)2,-0.669539852
6782,ScNiB4,-0.564911527
6783,EuB2Rh3,-0.596770633
6784,Ce2NiB10,-0.577997917
6785,YbNiB4,-0.400103961
6786,GdCoB4,-0.552593247
6787,GdCo3B2,-0.459866067
6788,Ca(Ni2B)6,-0.355033121
6789,CoBMo,-0.431316962
6790,CoReB,-0.275403746
6791,In2(Ni7B2)3,-0.267789071
6792,Ni21(SnB3)2,-0.283981214
6793,Tm2(Ni7B2)3,-0.360822145
6794,Nb3(Fe10B3)2,-0.262478836
6795,Ce(Ni2B)6,-0.396444074
6796,CeCo4B,-0.309465796
6797,Th2FeB10,-0.610395801
6798,EuBO3,-3.091237405
6799,GdB2Rh3,-0.695647761
6800,Ce(CoB)4,-0.469155006
6801,Eu(BO2)3,-2.971089837
6802,UB12,-0.270851717
6803,GdB2Ru3,-0.460081151
6804,CeReB4,-0.578104411
6805,Hf3B2Ir5,-0.833101017
6806,CeBPt3,-0.885435431
6807,Nd2NiB10,-0.526759777
6808,ThCrB4,-0.576430774
6809,Th2CoB10,-0.620354948
6810,Tb4CoB13,-0.458531382
6811,YbCoB4,-0.440463846
6812,Ni8Ge2B3,-0.320951111
6813,TaNiB2,-0.636257905
6814,CoBW,-0.432199103
6815,SmMnB4,-0.569181569
6816,BNCl2,-0.94601607
6817,NaB15,-0.050672506
6818,Bi(BO2)3,-2.591704092
6819,Bi4B2O9,-2.104016218
6820,BClF6,-2.145782145
6821,Bi3B5O12,-2.451645202
6822,Tl(BH)6,-0.293362204
6823,LiBH,-0.259866093
6824,B(HO)3,-1.930892313
6825,K(BH)3,-0.366638884
6826,Cs(BH)3,-0.379328756
6827,Rb(BH)6,-0.451497024
6828,Cs(BH)6,-0.462427371
6829,K(BH)6,-0.445148483
6830,K(BH)5,-0.37196351
6831,NaBH4,-0.399754597
6832,KBH4,-0.18044766
6833,Co3(BO3)2,-2.036197949
6834,Cr3BO6,-2.466734576
6835,Fe3BO6,-2.100276879
6836,B10(Pb2O7)3,-2.475122639
6837,DyB4,-0.601290392
6838,B9H8S,-0.198789351
6839,BSBr,-0.736657221
6840,Ba7(BIr)12,-0.474111677
6841,Li3BO3,-2.566191782
6842,BH4N,-0.54983719
6843,Be(BH4)2,-0.22670229
6844,BSF7,-2.616695231
6845,U(BH4)4,-0.247876313
6846,B4PF9,-2.5162526
6847,Sn2BF7,-2.868136039
6848,Sn3BF9,-2.807370228
6849,BN3Cl2,-0.623854321
6850,Na4B2O5,-2.417578134
6851,CsB9H14,-0.257326879
6852,BH7N2,-0.335998432
6853,RbB10H9,-0.260923365
6854,Ca2B6O11,-3.082586588
6855,BaB4O7,-3.03681681
6856,Sc(BC)2,-0.458718174
6857,BPS4,-0.755459844
6858,Be(B3H7)2,-0.182653057
6859,Co(BW)3,-0.444235896
6860,BaB8O13,-2.95850101
6861,B5H11N2,-0.323134393
6862,B5H9N,-0.316474923
6863,La2Re3B7,-0.472635526
6864,ErNiB4,-0.576081552
6865,Hf(BH4)4,-0.295257917
6866,B9H11C2,-0.177434445
6867,B20H26O,-0.061761098
6868,Ho3Ni19B10,-0.436260061
6869,Ca5Ni15B4,-0.32573353
6870,TlBO2,-2.207490917
6871,Sn5BF13,-2.740921713
6872,Ce15B8N25,-1.607264516
6873,B2PCl2,-0.713901573
6874,Tl3BSe3,-0.316942434
6875,CsB3H8,-0.346433246
6876,UReB3,-0.552710741
6877,LiBPt3,-0.521026713
6878,NaBPt3,-0.444373755
6879,Y3(Fe31B7)2,0.078579361
6880,Na3BN2,-0.639340804
6881,ThB2O5,-3.430739918
6882,Gd2B3C2,-0.469265001
6883,CaB2Rh3,-0.618921864
6884,Sr5(B5Rh7)2,-0.555931175
6885,Ce(CrB3)2,-0.620699673
6886,Zn(BIr)2,-0.298432221
6887,Zn2BIr2,-0.286441408
6888,LuB2Os3,-0.352512738
6889,TlBS3,-0.773641837
6890,Ga3B4Pt9,-0.4009197
6891,CuBIr,-0.177920471
6892,BIrPd,-0.276144153
6893,Ga8BIr4,-0.431080116
6894,Mg3BN3,-1.038944954
6895,Sn5(BIr3)2,-0.278780234
6896,Sn4B3Ir7,-0.272134613
6897,Na3B5S9,-1.070686218
6898,TlB3O5,-2.598460768
6899,YBO3,-3.546751498
6900,Ba2(Ni3B2)3,-0.291299536
6901,LuB2Ru,-0.668114127
6902,B5(H2N)2,-0.166161704
6903,Pr2(ReB2)3,-0.423801678
6904,Tl3BS3,-0.707948383
6905,Zr6BCl14,-2.132254614
6906,Na3BP2,-0.339583915
6907,Li2B2S5,-1.087732702
6908,Na2B2S5,-1.068758886
6909,Sc4BCl6,-2.082163106
6910,SmB2Rh3,-0.683966007
6911,BH2N,-0.710387371
6912,Y4BBr6,-1.542556686
6913,Pr3(BN2)2,-1.434025027
6914,Nd3(BN2)2,-1.466669863
6915,La5B4N9,-1.573510069
6916,CeBN2,-1.506768186
6917,LaBN2,-1.572339641
6918,B2H4C,-0.115285196
6919,La(CoB)2,-0.479254062
6920,LaB2Ru3,-0.422169498
6921,Ni20(SnB2)3,-0.272559017
6922,YBRh3,-0.782312569
6923,PrBPd3,-0.544042851
6924,GdBO3,-3.291161139
6925,Gd4B3C4,-0.406277427
6926,Tb10B2Br15,-1.548930827
6927,Tb4BBr6,-1.533910351
6928,HoB2Ru3,-0.48271577
6929,Y2B3C2,-0.5024351
6930,Tb16B4Br23,-1.512564273
6931,TlBSe3,-0.231964959
6932,ThB2C,-0.525025196
6933,K3BS3,-1.33106935
6934,Na3BS3,-1.239505116
6935,Rb3BS3,-1.320949528
6936,Nb3B3C,-0.676789896
6937,Nb4B3C2,-0.63819442
6938,Nb7(BC)4,-0.622604583
6939,Nb7(B2C)3,-0.65523478
6940,La3B2N5,-1.582714248
6941,Sn5(BRh3)2,-0.460284021
6942,Sn4BRh6,-0.495535269
6943,MgB9N,-0.425956637
6944,Li2B2Se5,-0.512860919
6945,Ba2B4Se13,-0.55364352
6946,Ba(BS2)2,-1.367890383
6947,Rb3B7O12,-2.790255843
6948,GaBH6,-0.072301169
6949,LiBH4,-0.43250837
6950,TbBPd3,-0.624017391
6951,Cs3BS3,-1.34103277
6952,Sr3(BS3)2,-1.762074048
6953,Ca3BN3,-1.250695892
6954,RbBF4,-3.329916309
6955,Tb(NiB)2,-0.556148612
6956,TbCo3B2,-0.481131764
6957,ErFe4B,-0.251092444
6958,TlBF4,-2.948995575
6959,NdB2Rh3,-0.66326843
6960,Nd3Ni13B2,-0.369873547
6961,LaBRh3,-0.708560315
6962,Ce2B2Ir5,-0.739779797
6963,Ba3(BN2)2,-1.185747521
6964,Dy3Co11B4,-0.36960963
6965,DyB2Ru3,-0.47932263
6966,LaB5O9,-3.098965652
6967,ErB2Ru3,-0.485911765
6968,Ca(BS2)2,-1.26462965
6969,Na3BO3,-2.282998037
6970,B5H6Br,-0.214547546
6971,B10H13I,-0.174422691
6972,Ho(NiB)2,-0.566533491
6973,U(BO3)2,-3.168100219
6974,Ce4B2N5,-1.576089521
6975,Nd2Ni5B4,-0.469041707
6976,Ho3CrB7,-0.616028627
6977,LuBPd3,-0.648495217
6978,LaBPt2,-0.933141958
6979,Rb4(BS)9,-1.041565556
6980,B6H10N,-0.380109469
6981,Na3B7O12,-2.780665163
6982,YB2Ir3,-0.674545549
6983,ErNi7B3,-0.433250089
6984,Na4(BSe)9,-0.495667432
6985,BiBO3,-2.307261659
6986,RbBO2,-2.638218656
6987,Gd2B4O9,-3.274609166
6988,CoB4O7,-2.629555688
6989,Th3B2C3,-0.418196399
6990,DyBRh3,-0.806231401
6991,TbB2Ru3,-0.474077746
6992,Er(FeB)2,-0.450231495
6993,Mn2BO4,-2.375685447
6994,ThB2Ru3,-0.522752233
6995,Dy(BO2)3,-3.21566236
6996,YbB2Ru3,-0.362063868
6997,LiBIr,-0.502720343
6998,SmBPd3,-0.587761379
6999,LaB2Rh3,-0.672102007
7000,SmB2Ru3,-0.441528143
7001,La2Ni5B4,-0.478803057
7002,LiMg9B20,-0.123260454
7003,NaBF4,-3.253232002
7004,Mg(BC)2,-0.148209962
7005,NdBRh3,-0.705250766
7006,Ce3(BN2)2,-1.557041971
7007,Nd(BO2)3,-3.178988358
7008,LiB3O5,-2.825046788
7009,Er2Fe14B,-0.119547223
7010,YbBRh3,-0.621203595
7011,NdCo4B,-0.213081338
7012,HoBPd3,-0.635534969
7013,HoBRh3,-0.814322501
7014,LuBRh3,-0.840135833
7015,ErBRh3,-0.822619615
7016,LaBPd3,-0.566694689
7017,Pr2Co7B3,-0.274201572
7018,TbBRh3,-0.795938681
7019,HfNbB4,-0.862425627
7020,Tb(CoB)2,-0.55674221
7021,KBO2,-2.664840667
7022,Ba5B4O11,-3.164264796
7023,CsB3O5,-2.829883007
7024,Dy2Fe14B,-0.112082102
7025,CsBF4,-3.342356641
7026,Er2(NiB2)3,-0.585835351
7027,Sm(CoB)2,-0.516303911
7028,Nd2Co14B,-0.112665535
7029,Nb3Co4B7,-0.583756519
7030,Lu2Fe14B,-0.126094968
7031,Pr(CoB)2,-0.471514183
7032,K2B2S7,-1.082670352
7033,YB2Ru3,-0.471898875
7034,CeCo3B2,-0.486259076
7035,Ce2Fe14B,-0.072999288
7036,BMo2C,-0.230736754
7037,Tl3BO3,-1.657803711
7038,Y2B5Pd14,-0.45921434
7039,Nd3Co13B2,-0.148979914
7040,TaBO4,-3.164213632
7041,LaNi4B,-0.419204779
7042,La(BO2)3,-3.207973801
7043,La3(B3Ru4)2,-0.450677615
7044,Hg3(BO3)2,-1.676508763
7045,Si2Ni6B,-0.480408919
7046,Li2B4O7,-2.818711644
7047,Zn4B6O13,-2.524111482
7048,Cu(BO2)2,-2.295859684
7049,KBF4,-3.325401221
7050,ScCo3B2,-0.542991428
7051,SmBRh3,-0.743596983
7052,SiB2Mo5,-0.396424137
7053,Li3BN2,-0.968762613
7054,Na2B2Se7,-0.419310505
7055,YCo3B2,-0.479882815
7056,Y2ReB6,-0.616251534
7057,Ce2Co7B3,-0.406301555
7058,Ti3Co5B2,-0.553594447
7059,Er4NiB13,-0.500920229
7060,Fe3BO5,-2.122242117
7061,Y4CoB13,-0.462371483
7062,YB7Mo3,-0.551588003
7063,HoB7Mo3,-0.559958592
7064,Na3B5Pt9,-0.425081797
7065,Sm2Co7B3,-0.315082274
7066,U(CoB)4,-0.414004977
7067,U3Co7B2,-0.358512431
7068,Eu3(BO3)2,-3.198468515
7069,Np(BH4)4,-0.225400083
7070,Sc7BCl12,-2.192702557
7071,Ta4BTe8,-0.419179517
7072,Lu2CoB6,-0.65022732
7073,Co21(B3Sb)2,-0.180781546
7074,Lu2FeB6,-0.689652366
7075,GdMnB4,-0.611772371
7076,Fe2BO4,-2.200628773
7077,Ho4NiB14,-0.622548196
7078,Nd5Co21B4,-0.173871133
7079,Co2B2O5,-2.190149576
7080,Eu(BS2)2,-1.299755135
7081,Sc2CrB6,-0.74819491
7082,La4B4Br5,-1.368470867
7083,CeBRh3,-0.774849213
7084,EuBRh3,-0.465708628
7085,Zn5B3Rh7,-0.436281216
7086,MnBO3,-2.219139509
7087,Dy(CoB)2,-0.564812049
7088,Zr2(Ni7B2)3,-0.374243832
7089,Nd2Fe14B,-0.058119412
7090,ErB2Ir3,-0.683275404
7091,PrBRh3,-0.680411087
7092,Li4Mg23B54,-0.108104447
7093,CsB9O13,-2.651992724
7094,UBN,-1.198016926
7095,Ca3(BN2)2,-1.346433706
7096,HoCo3B2,-0.504586585
7097,Na3B5Se9,-0.467375573
7098,Li5B7S13,-1.090896998
7099,ErCo3B2,-0.515091456
7100,PrB2Rh3,-0.647474679
7101,Sr2B2O5,-3.223931963
7102,Ba(BO2)2,-3.110948512
7103,Eu(BO2)2,-3.084655744
7104,B2PdO4,-2.22685084
7105,SmCo3B2,-0.420990886
7106,Mg2B4Ru5,-0.359853832
7107,Mn3BO5,-2.293141076
7108,Rb4(BSe)9,-0.586630162
7109,Ce2(Ni7B2)3,-0.335450579
7110,Co21(ReB3)2,-0.187433786
7111,U2(Co7B2)3,-0.270835696
7112,Zr2(Co7B2)3,-0.271935204
7113,Tb3Ni13B2,-0.435848978
7114,Sc3B2Rh5,-0.884905255
7115,Pr5Co19B6,-0.224334703
7116,Tl3B3Se10,-0.23023794
7117,Na2B8O13,-2.820957579
7118,Ca2B5Os3,-0.373364844
7119,ErB3Mo,-0.637567606
7120,K2B2Se7,-0.516536719
7121,Cr2(Co7B2)3,-0.165792163
7122,Co21(B3Mo)2,-0.206505828
7123,Dy3Ni13B2,-0.440369146
7124,Co21(SnB3)2,-0.173601456
7125,Zn3(BO3)2,-2.284958501
7126,Bi2B8O15,-2.64267847
7127,Y2Fe14B,-0.110357237
7128,TmBRh3,-0.831506526
7129,Pr3Co11B4,-0.250433099
7130,Rb5B19O31,-2.84426731
7131,Lu3B5O12,-3.398620332
7132,K5B19O31,-2.849430844
7133,CuB4O7,-2.466258341
7134,Nd(CoB)2,-0.488471756
7135,ThB4Mo,-0.575511487
7136,Cd3(BO3)2,-2.105947574
7137,Yb3B5O12,-2.947417017
7138,SrB2F8,-3.569164171
7139,NaB3O5,-2.802124362
7140,Nd3Co11B4,-0.27464224
7141,MnB2F8,-3.139538799
7142,Ho2(Ni5B3)3,-0.421611777
7143,CdB2F8,-3.017817764
7144,LuB2Ru3,-0.489631393
7145,Ca(B3O5)2,-2.986302561
7146,BaB2F8,-3.563108087
7147,B2Se2O7,-1.917389187
7148,Tm3B5O12,-3.392266984
7149,Pr4B10O21,-3.205039665
7150,Sr4B14O25,-3.061570779
7151,ZrB2O5,-3.209582364
7152,HfB2O5,-3.273929785
7153,KB3O5,-2.829628847
7154,Er3B5O12,-3.380665779
7155,Li3BS3,-1.324990401
7156,CsBO2,-2.627977279
7157,RbB5O8,-2.849982298
7158,TmB2Ru3,-0.488902726
7159,Ba7B4S13,-1.84750797
7160,Ni(BO2)2,-2.290333289
7161,Fe(BO2)2,-2.523687341
7162,NiB4O7,-2.499524839
7163,Cr(B3H8)2,-0.119644538
7164,Mg(SiB6)2,-0.114959515
7165,Ho2(Ni5B2)3,-0.404004572
7166,Pr10(B3C4)3,-0.281264087
7167,Pr2B3Cl,-0.658876141
7168,ErB2Rh3,-0.716033517
7169,Y3Ni13B2,-0.418524565
7170,Lu4B3C4,-0.525879032
7171,LaBC,-0.379592222
7172,Nd2Fe23B3,-0.090175031
7173,Lu(BRu)4,-0.500464655
7174,Pr8(BCl)7,-1.411785158
7175,Ho2(Ni2B)5,-0.470540924
7176,Er(CoB)2,-0.577522597
7177,Ca7(B7Rh10)2,-0.625482666
7178,LiBH2,0.108621004
7179,Dy2B4C,-0.566947909
7180,Mg10B16Ir19,-0.460537807
7181,Mg2B24C,-0.132853058
7182,Mg8BRh4,-0.446854342
7183,Tb2B2C3,-0.33897786
7184,Mg8BPt4,-0.66937051
7185,Dy(FeB)2,-0.439820189
7186,Sr3(B3Rh4)2,-0.559707311
7187,Mg(B6C)2,-0.168883524
7188,NdBC,-0.36618918
7189,La2B3Br,-0.847541078
7190,Y3ReB7,-0.33061382
7191,MgBIr,-0.447119273
7192,Sc2B6Rh,-0.724533823
7193,La2B3Cl,-1.017501001
7194,Dy2Co7B3,-0.400993973
7195,BH6N,-0.442548874
7196,Ca3(B3Rh4)2,-0.627268452
7197,Ce10(B3C4)3,-0.367248067
7198,Be(BC)2,-0.098168878
7199,NdBPt2,-0.93490666
7200,Nd5Co19B6,-0.250136932
7201,Pr2Fe14B,-0.03631811
7202,LiB6C,-0.244778584
7203,Yb2(Ni5B3)3,-0.40930766
7204,Zn5(BRh2)4,-0.425236539
7205,ScBRh3,-0.762965045
7206,La4B4Cl5,-1.746102535
7207,Cs(BBr)6,-0.711682158
7208,Cr2B2Ir,-0.376995262
7209,La3(BN2)2,-1.507667964
7210,Ca(BH4)2,-0.449804173
7211,ThBC,-0.473277931
7212,La10(B3C4)3,-0.33098495
7213,La5(BN3)2,-1.526058873
7214,Eu2B4Rh5,-0.620282296
7215,Cs(BCl)6,-1.230103112
7216,Tb10B7C10,-0.406611416
7217,In5B4Ir9,-0.219633814
7218,PrBC,-0.341912151
7219,Yb3Ni7B2,-0.519843736
7220,Ba(BSe3)2,-0.575967008
7221,Ti2BRh6,-0.685108028
7222,Mg(BH4)2,-0.311769128
7223,Y3(B3Os4)2,-0.376318361
7224,Nd10(B3C4)3,-0.300902648
7225,Y(BH4)3,-0.401391826
7226,TmCo3B2,-0.525792117
7227,MgNi3B2,-0.385202365
7228,Ho(FeB)2,-0.445170239
7229,Pr5B2C5,-0.220929279
7230,CsBSe3,-0.582402342
7231,Ho(CoB)2,-0.567295753
7232,Ce2Co5B2,-0.437169338
7233,CeB2Rh3,-0.686086979
7234,Tb2Fe14B,-0.10695512
7235,Nd(BC)2,-0.409922765
7236,ZnB3Ir4,-0.258759694
7237,Eu(Ni2B)6,-0.361945161
7238,Nd(CoB)4,-0.461695126
7239,Eu2B5Os3,-0.388828401
7240,Nd2Co7B3,-0.300021417
7241,Ba7B4Se13,-1.286246798
7242,Tm2Fe14B,-0.122840683
7243,PrB2Ru3,-0.393591495
7244,CeB2Ru3,-0.510148436
7245,YBPt2,-1.009769164
7246,Zn(BH4)2,-0.124019762
7247,Li2B2Rh3,-0.49655587
7248,Gd3Co11B4,-0.339933395
7249,Zn5B3Ir7,-0.074054151
7250,Gd(CoB)2,-0.527977328
7251,Fe(BW)2,-0.322139962
7252,LaReB,1.157587574
7253,BiBTe,1.136416964
7254,ZrBTe,0.760662274
7255,TlBCl2,0.429372039
7256,TlBTe2,1.100194836
7257,KHg2B,0.896655686
7258,SiBPb,1.408563698
7259,In2GeB,0.91437767
7260,ZnBSe2,1.131565002
7261,BSe2Cl,1.216439576
7262,Hg2BCl,0.82722748
7263,NbBW,1.633311824
7264,KBIr2,1.701977736
7265,BeReB,0.851091766
7266,NiBiB,0.860710894
7267,BiBCl,1.430304913
7268,NiBTe,0.741234648
7269,BeGeB,0.753234669
7270,BaSiB,1.166740261
7271,LiBBr2,0.715010281
7272,In2ReB,1.457922985
7273,HfGeB2,1.275706042
7274,CaBiB,0.937658861
7275,SrBiB,0.933125078
7276,Ga2BSb,0.920170351
7277,BaGe2B,0.739391186
7278,Sn2BSe,0.855154774
7279,Hf2BiB,1.015039268
7280,MgBe2B,0.680513957
7281,BaTaB,1.511627141
7282,BPd2Br,0.992129401
7283,B2IrCl,1.791293981
7284,Y2FeB,0.665695023
7285,LiB13C2,-0.172375409
7286,CeBC,-0.380552788
7287,Cs(BI)6,-0.440215182
7288,Na12B26O45,-2.762652373
7289,NaB9Se8,-0.311455959
7290,Nd(Fe2B)6,-0.273298903
7291,B3C10N3,0.032143592
7292,Gd(Co2B)6,-0.336898215
7293,La4B14O27,-3.17596353
7294,Sc2(Ni7B2)3,-0.37581844
7295,Sm2B4O9,-3.277623354
7296,Ho2B4O9,-3.293176485
7297,KB5O8,-2.544296982
7298,Sr2B8Ru7,-0.375831995
7299,Sm11(CoB)40,-0.468525269
7300,Nd5(FeB)18,-0.423113329
7301,Li3BH6,-0.161119129
7302,B2Pb2S5,-0.865424712
7303,U5(B12Mo5)2,-0.546320954
7304,Co21(B3W)2,-0.219130554
7305,Eu3(B3Rh4)2,-0.614231537
7306,Li7B18O,-0.416715446
7307,La15B14C19,-0.335518818
7308,Ce5B4C5,-0.340616817
7309,TlB5O8,-2.694011009
7310,Gd2(FeB)7,-0.47438665
7311,NdNi4B,-0.409986255
7312,CsB9O14,-2.846087127
7313,Ho(BO2)3,-3.215119362
7314,Tm(BO2)3,-3.218523391
7315,Er(BO2)3,-3.215565557
7316,Lu(BO2)3,-3.215277932
7317,K4(BSe)9,-0.575339012
7318,SrB8O13,-2.953446854
7319,Ti5(B6O13)2,-2.972439637
7320,Li20B54O,-0.260748466
7321,Li26(B24O)3,-0.306408668
7322,Zn4B2O7,-2.136061457
7323,Sr(BIr)2,-0.61566542
7324,BHO2,-2.306164788
7325,B3H7N,0.048983828
7326,InBO3,-2.481812324
7327,NdB2Ru3,-0.413113246
7328,Cd2B2O5,-2.257885791
7329,Be(B3H8)2,-0.076642879
7330,B8H10N,-0.084186754
7331,La(BRu)4,-0.484566468
7332,Sr(BRh)2,-0.555549023
7333,Ba(BRh)2,-0.477240651
7334,La2B4O9,-3.313091697
7335,YbB4O7,-3.072986933
7336,HoBO3,-3.576718689
7337,Ba2B2O5,-3.148741776
7338,BSbO3,-2.242387026
7339,Bi2B2O7,-2.028441018
7340,Bi2BO5,-1.953173967
7341,Y(BO2)3,-3.172497547
7342,Cd4B6O13,-2.374291502
7343,Li5BO4,-2.364629363
7344,Ba3(BO3)2,-3.163143802
7345,Bi2(BO3)3,-2.081059072
7346,YNi4B,-0.484102072
7347,LuBO3,-3.584095363
7348,Tm4(B2O5)3,-3.332914973
7349,Co(BW)2,-0.456211062
7350,Ho9B4O19,-3.683361981
7351,Zr6BI12,-0.970081791
7352,B2TeO5,-2.262275044
7353,Li6B4O9,-2.623777337
7354,Li4B2O5,-2.59325932
7355,YB5O9,-3.057318468
7356,Bi3BO6,-1.926897628
7357,YB4Mo,-0.616709967
7358,NbFeB,-0.12039733
7359,Pr5(CoB3)2,-0.3906377
7360,Bi24B2O39,-1.70468479
7361,B5SbO10,-2.486075432
7362,B2TeO6,-2.077495251
7363,Sm3B5O12,-3.270445927
7364,HfCo3B2,-0.579592987
7365,LaBO3,-3.538989197
7366,CaNi4B,-0.305427489
7367,Ca3Ni7B2,-0.339615998
7368,Ca(BRh)2,-0.607102218
7369,Lu5Ni19B6,-0.511692383
7370,InBF4,-2.86417204
7371,ScB2C,-0.575546481
7372,PrBO3,-3.465722838
7373,PrNiB4,-0.509430038
7374,SmBO3,-3.504279039
7375,PrBS3,-1.655071405
7376,Nd2BC,-0.301544783
7377,DyB4Mo,-0.627292989
7378,GdNiB4,-0.563903527
7379,Lu3Ni7B2,-0.560764391
7380,Tm3ReB7,-0.664842484
7381,UB4W,-0.493518506
7382,LuNiB4,-0.562704452
7383,YReB4,-0.576138077
7384,YbB4Os,-0.454396368
7385,Yb3Ni13B2,-0.378160844
7386,GdFeB4,-0.570698903
7387,CeB2C,-0.525371656
7388,Gd3Ni19B10,-0.416321289
7389,YbB2C,-0.360094478
7390,TbB4Ru,-0.626999675
7391,TbBS3,-1.620228846
7392,TbVB4,-0.702712203
7393,Ce(BIr)2,-0.701959734
7394,Mg(B2O5)3,-1.910606402
7395,ScBO3,-3.453124446
7396,Lu2(NiB2)3,-0.597827063
7397,Nd5(FeB3)2,-0.388507842
7398,Sr(BO2)2,-3.104887404
7399,Ca2B4Rh5,-0.620158725
7400,Sr2B4Rh5,-0.560178354
7401,TlBS2,-0.798128878
7402,PrBN2,-1.502361782
7403,RbBS3,-1.119258226
7404,LiBC,-0.376008585
7405,Th(CrB3)2,-0.598838472
7406,Li(BH)5,-0.335389618
7407,Nd(BIr)4,-0.551429121
7408,La(BIr)4,-0.56911217
7409,K3BP2,-0.403480168
7410,Cs3BP2,-0.40954698
7411,TiBO3,-3.014912488
7412,ZnBO3,-1.048133452
7413,TmB4Ru,-0.652720087
7414,Tb3FeB7,-0.569885007
7415,Ta2BN3,-0.272557809
7416,UNiB4,-0.48378222
7417,Tb3ReB7,-0.591491302
7418,SnBO3,-1.254833986
7419,SmBS3,-1.636199399
7420,TbNiB4,-0.581080709
7421,Si2B2O5,-1.030410416
7422,SiBO3,-1.005783524
7423,Sm3Ni7B2,-0.440274552
7424,LiSiB6,-0.2025624
7425,Ho3ReB7,-0.631166152
7426,Nd(BRh)4,-0.550242394
7427,HoVB4,-0.721390942
7428,LuB4Os,-0.597813232
7429,GeBO3,-1.026073379
7430,PaBO3,-2.257733684
7431,HoB4Ru,-0.642113462
7432,HoReB4,-0.595362304
7433,RbBO3,-0.61641031
7434,PuBO3,-2.345412035
7435,Pr(CoB)4,-0.44464066
7436,Pr(BRu)2,-0.50162553
7437,Pr(BOs)2,-0.425883737
7438,HoB4W,-0.599600754
7439,Gd3MnB7,-0.54230004
7440,Ho2Co7B3,-0.409252986
7441,NpBO3,-2.237327503
7442,Ga3(Ni10B3)2,-0.330948082
7443,YbFeB4,-0.461632346
7444,HoMnB4,-0.66415192
7445,Na(BH)6,-0.398332466
7446,Sm(BRh)4,-0.565881149
7447,Sm(BOs)2,-0.456600176
7448,Sm(BRu)2,-0.529362931
7449,Tb(BIr)4,-0.552806372
7450,Sm2(ReB2)3,-0.487955401
7451,SmNiB4,-0.55664528
7452,YB4Os,-0.570249255
7453,Y(BIr)4,-0.54680495
7454,YbB4Ru,-0.483542229
7455,TmB4Os,-0.599258294
7456,CuBSe2,-0.111939646
7457,BOsO3,-0.242110361
7458,BPbO3,-1.083335714
7459,CaBO3,-2.036397014
7460,DyB4Ru,-0.635878783
7461,ErCrB4,-0.687432402
7462,B2(CN2)3,-0.129195348
7463,Fe5B2P,-0.387315705
7464,DyBC,-0.040527872
7465,NbNiB,-0.556613456
7466,Ni(BMo)2,-0.473910283
7467,Cu2B2C,0.65109938
7468,CsB3PbF12,-3.1632306
7469,PrGeBO5,-2.97599703
7470,Ba2B10O17,-3.00513038
7471,Ba3Y2(B2O5)3,-3.307470524
7472,Ba2Mg(BO2)6,-3.067511383
7473,BaB2S3O13,-2.436789323
7474,BaCaB2O5,-3.221240713
7475,BaNaB5O9,-2.952299896
7476,Ca10Ge16(B2O17)3,-2.671420822
7477,Cs2B2S3O13,-2.341998701
7478,Cs3BO3,-2.16434731
7479,Cs3Li4(BO2)7,-2.711759456
7480,CsLi(B3O5)2,-2.858625548
7481,CsLi4(BO2)5,-2.739273146
7482,CsBS3O11,-2.161613165
7483,CsBe4(BO3)3,-2.973494893
7484,CsSi2BO6,-3.088160646
7485,CsMgBO3,-2.774074554
7486,CsZn4(BO3)3,-2.340576737
7487,EuZn(BO2)5,-2.813208747
7488,Eu2Ge(BO4)2,-2.886324681
7489,K2La2B2O7,-3.168821663
7490,K3Zn(BO2)5,-2.666022802
7491,K3B(SO4)3,-2.337789245
7492,K5B(SO4)4,-2.354604294
7493,KB(SO4)2,-2.269243962
7494,KB(S2O7)2,-2.083345642
7495,KBe2B3O7,-2.91490116
7496,KNa2BN2,-0.641074925
7497,KSi2BO6,-3.07074174
7498,La3BN2O3,-2.829864808
7499,LaZn(BO2)5,-2.950760918
7500,Li3B11O18,-2.833220573
7501,Li2B3PO8,-2.807581601
7502,Li5B(SO4)4,-2.332922898
7503,Li3B(PO4)2,-2.760353118
7504,LiBeBO3,-2.872789909