id,Composition,FormationEnergy
27739,EuSnF7,-3.287952055
27740,ErZn5,-0.262719989
27741,Dy2(Ga3Ru)3,-0.541091168
27742,ErGe,-0.85179821
27743,DyFeSi,-0.641530132
27744,DyInIr,-0.704608863
27745,EuPt2,-0.95569237
27746,DySi3Rh5,-0.980677221
27747,EuI2,-1.604476164
27748,Er(IO3)3,-1.505637776
27749,ErRh,-0.952868395
27750,Dy(HO)3,-2.322832656
27751,ErGa2,-0.6088811
27752,ErTl3,-0.177071688
27753,EuZn5,-0.242337808
27754,ErH3(SO4)3,-2.183372065
27755,Er(HO)3,-2.323972891
27756,ErHg,-0.47871236
27757,DyH4I3O11,-1.464060872
27758,ErSe,-1.686362049
27759,DyFeO3,-2.966685543
27760,ErFeO3,-2.976711175
27761,DyMnO3,-3.053350446
27762,DyMn2O5,-2.664716808
27763,DyVO3,-3.308704665
27764,Er2WO6,-3.329523169
27765,EuMnO3,-2.663781746
27766,ErSeF,-3.014822405
27767,ErIr,-0.90571141
27768,KEr2F7,-4.250076198
27769,Er(PO3)3,-3.04546901
27770,ErPd3,-0.919467375
27771,Dy2GeO5,-3.389716355
27772,ErSeI,-1.688479915
27773,DySI,-2.045427488
27774,Dy(SiRh)2,-1.12578037
27775,Eu2RbI5,-1.590111113
27776,Er2Ge5,-0.510495292
27777,Er7(NiTe)2,-0.675796291
27778,K5(DyI4)3,-1.371160641
27779,DyGa,-0.629845405
27780,DyInPd2,-0.834452557
27781,ErMg2,-0.060405485
27782,Er2Ni17,-0.207004074
27783,ErTlPd,-0.653215413
27784,Er2Pt,-0.980383353
27785,ErSnPt2,-1.018628157
27786,Er7Rh3,-0.652890258
27787,ErSn2,-0.554205943
27788,ErZn12,-0.159761472
27789,Er6Zn23,-0.29766322
27790,DySnPd,-0.923733339
27791,DySi2Rh3,-1.027972255
27792,DyZn3,-0.356849256
27793,EuTl2,-0.321025707
27794,Er2Ru2O7,-2.618762728
27795,Er2Zn17,-0.217670667
27796,Dy3InN,-1.083972444
27797,Er3InN,-1.093850486
27798,Dy2Pd2Pb,-0.84481605
27799,Er2Pd2Pb,-0.845678362
27800,Er2FeSi2,-0.719895966
27801,Dy3GaO6,-3.614106604
27802,Er3GaO6,-3.635815587
27803,DyScO3,-3.981622474
27804,DyTlS2,-1.823136795
27805,Er5Si3,-0.697697185
27806,Er(FeSn)6,-0.108894501
27807,Er3Ru2,-0.312511526
27808,ErSnRh,-0.909009752
27809,Er2(SeO3)3,-2.365965942
27810,Er5Sn3,-0.706340211
27811,ErGaPd,-0.905800235
27812,ErInRh,-0.762332643
27813,ErInNi,-0.513804677
27814,Dy(SiPt)2,-1.031455664
27815,Er(SiPd)2,-0.931784694
27816,EuNiO3,-1.972397042
27817,Dy(SiPd)2,-0.94811355
27818,ErSiPd2,-0.996294259
27819,Eu(PrS2)2,-2.471805721
27820,Dy2Ti2O7,-3.791473883
27821,ErTaO4,-3.762385467
27822,Er(MnGe)6,-0.319908447
27823,Er(NiP)2,-1.010266967
27824,ErP5O14,-2.841901
27825,Er3Pb4F17,-3.61046857
27826,Nd5ErS8,-2.381108355
27827,Sm(DyS2)2,-2.375568542
27828,ErInPt,-1.009196174
27829,Dy2Hf2O7,-4.033921359
27830,NaErS2,-2.186194421
27831,Er2Sn2O7,-3.047746948
27832,Dy10Ti6O27,-3.78589647
27833,Er10Ti6O27,-3.676271297
27834,ErSi,-0.822151165
27835,Er6Ni2Sn,-0.420507179
27836,Sr(ErS2)2,-2.420493887
27837,ErPb3,-0.23683714
27838,Er(SiIr)2,-1.071338754
27839,Er(SiOs)2,-0.721178648
27840,ErGa3,-0.508208681
27841,ErPO4,-3.530940657
27842,NaDy3Ti2(SbO7)2,-3.169144915
27843,Dy(SiIr)2,-1.08088402
27844,ErTlS2,-1.82047127
27845,DySi2Ni,-0.839501455
27846,Dy(SiRu)2,-0.91725072
27847,Dy6FeSb2,-0.554551314
27848,EuTaO4,-3.355593686
27849,Er2Si3Rh,-0.925236661
27850,KErS2,-2.219553247
27851,Dy(GeRh)2,-0.88819647
27852,Er(MnGe)2,-0.469387785
27853,ErInPd,-0.827392639
27854,DyNiSb,-0.908913067
27855,Dy(SiNi)2,-0.859394668
27856,Er(MnSi)2,-0.628564589
27857,ErFe2,-0.121420223
27858,ErTiGe,-0.695060499
27859,ErPt2,-1.112672665
27860,Er(NiGe)2,-0.675741804
27861,Er(SiNi)2,-0.854957074
27862,Dy(FeSi)2,-0.678529596
27863,Dy(MnSi)2,-0.628333041
27864,Er(SiRu)2,-0.9114199
27865,ErPS4,-1.457390793
27866,EuF2,-4.091918599
27867,ErHO2,-3.076781338
27868,Eu(SbPd)2,-0.792729148
27869,Eu3Sb5O12,-2.360313243
27870,Dy2Mn3Si5,-0.628059795
27871,DyZrSb,-0.803799165
27872,Dy2In16Pt7,-0.529562726
27873,Er2Ti3Si4,-0.816715085
27874,DyNiSn,-0.67390074
27875,Dy2(WO4)3,-2.751479864
27876,Er2MoO6,-3.252135043
27877,Dy2Te4O11,-2.322613015
27878,EuSbO4,-2.510425043
27879,Er4Si9Ir13,-0.982253205
27880,ErGe3,-0.440873117
27881,Dy(NiP)2,-1.020626531
27882,DyPS4,-1.476765453
27883,Dy2TiO5,-3.799764358
27884,Er2TiO5,-3.799523709
27885,Dy11S16,-2.438255686
27886,Er3(Si3Ru)4,-0.642162745
27887,ErNbO4,-3.593321872
27888,Er(SiRh)2,-1.117778432
27889,Er3Ni2,-0.382296709
27890,Dy6Fe16O,0.473251639
27891,Er2Ni12P7,-0.774540199
27892,Eu(ErS2)2,-2.499096938
27893,Er4I5,-0.930484539
27894,Er3Si3O10F,-3.74724545
27895,Dy(SiNi5)2,-0.446344204
27896,Dy2MoO6,-3.244814158
27897,EuTl,-0.138505098
27898,EuSi6,-0.103797335
27899,DyGa3Ni2,-0.570156816
27900,KDy(PO3)4,-2.941772781
27901,Er(FeGe)2,-0.446855268
27902,DyZnPO,-2.063468034
27903,ErU2S3O2,-2.754400906
27904,Er4Si3O11F2,-3.835175195
27905,Er4Mo4O11,-2.817512057
27906,DyP5O14,-2.85204397
27907,KErP2S7,-1.311149985
27908,LiEr2S2O8F3,-3.128965528
27909,LiEr(PO3)4,-2.946053437
27910,Dy3Se4O12F,-2.501089922
27911,Dy3ReO7,-3.385031696
27912,Na3Dy(Si2O5)3,-3.183861482
27913,KDy(SeO4)2,-2.029802122
27914,RbEr3F10,-4.323134141
27915,Dy2Te5O13,-2.212278746
27916,Er3SiSe2O10F,-3.075072461
27917,Er2SiSO4,-3.494640142
27918,Dy9(SbO)5,-2.385012941
27919,SrDy2O4,-3.7572806
27920,Dy3S3N,-2.330584398
27921,DyNbO4,-3.58835293
27922,ErSeO3F,-2.836475491
27923,Dy(PO3)3,-3.033410775
27924,Er2Tc2O7,-2.849157163
27925,Er2Hf2O7,-4.027664016
27926,DyTaO4,-3.752635302
27927,Dy2(TeO3)3,-2.490359638
27928,K2Er(NO3)5,-1.568476942
27929,Dy2Tc2O7,-2.842388996
27930,LaErS3,-2.551841023
27931,Li3Er(NO3)6,-1.526283513
27932,Er2Te5O13,-2.215747117
27933,Dy(IO3)3,-1.493561375
27934,Er3O2F5,-4.403176967
27935,SrEr2O4,-3.795111229
27936,Sr2DySbO6,-3.130385823
27937,Yb2PrDyS6,-2.193447884
27938,Dy2Hf2(MoO4)7,-2.665500586
27939,ErMoO4F,-3.065949606
27940,KEr(WO4)2,-2.691492976
27941,Na5Er(MoO4)4,-2.402690058
27942,RbDy(WO4)2,-2.662332605
27943,Na2DyMoPO8,-2.817582214
27944,Rb5ErHf(MoO4)6,-2.507398886
27945,Er2V2O7,-3.261626638
27946,DySbMo2O9,-2.44694395
27947,Er3Fe5O12,-2.688530626
27948,ErNi,-0.485493842
27949,Na2ErMoPO8,-2.820911532
27950,Dy3Se3N,-1.90005351
27951,DyInRh,-0.766931568
27952,Dy7(TeIr)2,-0.917299084
27953,Er4InIr,-0.599723488
27954,EuSn,-0.67856161
27955,Er5(NiTe)2,-0.813620077
27956,Na3ErV2O8,-2.710848369
27957,DyTlSe2,-1.386029452
27958,Er5Si4,-0.745179965
27959,Dy2Ni7Sn3,-0.427386749
27960,Dy(PPt4)2,-0.646998747
27961,Er(FeSi)2,-0.678833436
27962,DyInNi,-0.512588771
27963,Dy(PRu)2,-1.043569317
27964,Dy4Ni12Sn25,-0.326960591
27965,ErRu2,-0.364781958
27966,ErSi2Rh3,-1.018713107
27967,Eu2PI,-1.4132684
27968,ErTe3,-0.54718048
27969,ErFe3,-0.105806557
27970,Er2PbSe4,-1.47816935
27971,Er3Si3Ni,-0.829380486
27972,Dy2InGe2,-0.709677548
27973,Er5Rh3,-0.760545077
27974,ErNi3Ge2,-0.61676827
27975,ErTlSe2,-1.376008827
27976,Eu(NiSb)2,-0.543720389
27977,Dy2MgSi2,-0.715999508
27978,Er(GeRh)2,-0.869680184
27979,Er3(P3Pd10)2,-0.745044445
27980,Er5NiPb3,-0.514637631
27981,Er3Mn3Ga2Si,-0.364387634
27982,Er4InRh,-0.5733894
27983,Dy4MgRh,-0.404845198
27984,Dy4InRh,-0.564100013
27985,Er6I7,-0.904008939
27986,Er(GeRu)2,-0.638559876
27987,Er14(InPd)3,-0.472904007
27988,DyPO4,-3.525275454
27989,Er10W2O21,-3.675707896
27990,Dy(Zn10Ru)2,-0.190217943
27991,DyNiSn2,-0.569934727
27992,Eu(SiRu)2,-0.754879595
27993,Er2Te4O11,-2.323952011
27994,Dy(Zn10Rh)2,-0.237872403
27995,Eu(FeSi)2,-0.476029241
27996,ErNiGe2,-0.685065141
27997,Eu(MgSb)2,-0.735024859
27998,Rb3Er3(PS4)4,-1.47832846
27999,ErZrSb,-0.778614058
28000,ErSnPd2,-0.894151805
28001,Er2Ti2O7,-3.796118107
28002,EuIO,-2.361453704
28003,Dy5(In2Ni)2,-0.526692551
28004,Eu(GePt)2,-0.717681729
28005,EuSnPt,-0.914185694
28006,EuSb2,-0.707731688
28007,Eu(MgGe)3,-0.392675856
28008,EuSO4,-2.732203642
28009,DyGe2Pt,-0.869986595
28010,Er2Mn3Si5,-0.621006835
28011,DyFeGe2O7,-2.542032541
28012,ErNiSn,-0.662295679
28013,Eu4Ir,-0.248748708
28014,EuRh2,-0.403454678
28015,Eu(GeRh)2,-0.825994235
28016,Sr2ErRuO6,-2.893838373
28017,Er4Si2S3O7,-3.29989537
28018,Eu2H6Ru,-0.661094
28019,EuPd3,-0.506366031
28020,EuIn2,-0.48332814
28021,DyNiGe2,-0.708191337
28022,EuIn4,-0.269996968
28023,Dy5NiPb3,-0.532409052
28024,Eu(Sb3Os)4,0.232818697
28025,LiDy(PO3)4,-2.948789336
28026,Dy2(GePt3)3,-0.787406605
28027,Dy2V2O7,-3.250480672
28028,EuH3Pd,-0.601374924
28029,Dy3Fe5O12,-2.686224225
28030,Dy3(Ge3Pt2)2,-0.870325625
28031,Eu(DySe2)2,-1.928521306
28032,Er17(TeRu2)3,-0.602013447
28033,EuYb2Se4,-0.756790677
28034,Er2Ga10Os3,-0.413902752
28035,Dy2Fe3Si5,-0.690443442
28036,La10(ErS3)9,-2.568545245
28037,EuZn13,0.250940141
28038,Eu3Ga2,-0.371770611
28039,Dy(FeSn)6,-0.113121912
28040,NaErF4,-4.018220813
28041,Dy3TaO7,-3.634673217
28042,Er2Zr2O7,-3.807202389
28043,Er4Zr3O12,-3.979513777
28044,Yb3DySb3,-1.068302948
28045,Dy2PbS4,-1.949891792
28046,Er2Zr8O19,-3.787550286
28047,Dy14Ti10O41,-3.769115039
28048,Dy14(PbS8)3,-2.191890991
28049,Dy2Zr8O19,-3.778873755
28050,ErPaO4,2.080345393
28051,Yb(DyS2)2,-2.498139365
28052,Dy2Zr2O7,-3.779773109
28053,Dy3NbO7,-3.721263979
28054,K2ErTi(PO4)3,-3.117586274
28055,Eu(LaS2)2,-2.570392432
28056,Er2Fe3Si5,-0.692078502
28057,Er2(SO4)3,-2.790882057
28058,EuZn2,-0.301549958
28059,Eu3Sb4S9,-1.330634823
28060,Er14Ti10O41,-3.68844502
28061,Er18Ti14O55,-3.779129482
28062,Rb16Er7Ti9(PO4)24,-3.102991477
28063,DyZr9Si9PO40,-3.560571093
28064,DyMoO4F,-3.065370631
28065,Na3DyTi2Nb2O12,-3.157641587
28066,ErZr11Si11PO48,-3.563601709
28067,RbDyS2,-2.188794945
28068,Er2Si2O7,-3.717290177
28069,ErP2H7O10,-1.612209335
28070,ErP4HO12,-2.814062545
28071,KErP4(H2O9)2,-2.027609231
28072,DyP2H9O10,-1.650486294
28073,Er(SiPt)2,-1.013402208
28074,KErHSe2O9,-1.795734628
28075,Er3GaS6,-2.12148197
28076,RbDyO2,-3.061761728
28077,RbErO2,-3.086594143
28078,Dy2SiO5,-3.812162225
28079,Dy2Ge2O7,-3.065220702
28080,DyTmO3,-3.980099411
28081,Y5Dy3O12,-4.002720384
28082,NaDyO2,-3.171902707
28083,LaErO3,-3.956365432
28084,Dy2Nb2O7,-3.406018553
28085,SmErO3,-3.916091397
28086,ErInO3,-2.968858611
28087,Er2TeO2,-3.191733775
28088,EuY2O4,-3.727645827
28089,Er6Te2Ru,-0.733059638
28090,ErTlO2,-2.755940498
28091,Er2TeO6,-3.000086405
28092,YErO3,-3.932193133
28093,DyTlO2,-2.729676656
28094,Er(ReO4)2,-2.565429673
28095,DyHO2,-2.967072397
28096,Dy2Sb2O7,-2.747458119
28097,Dy2TeO6,-2.976582676
28098,DyGaO3,-3.151082892
28099,Er2Pb2O7,-2.566480519
28100,Er3TaO7,-3.898063983
28101,Eu3ReO8,-2.793733055
28102,TbErO3,-3.949269546
28103,LaDyO3,-3.921674583
28104,ErTiO3,-3.654785451
28105,Er2Nb2O7,-3.414557817
28106,Er2Pt2O7,-2.49237012
28107,SmDyO3,-3.878945514
28108,DyLuO3,-4.008566148
28109,ErTa3O9,-3.540222464
28110,Rb3ErO3,-2.252154899
28111,Rb3DyO3,-2.222972768
28112,DyTe3O8,-2.020466628
28113,Y3DyO6,-3.997144763
28114,K3ErSi3(HO5)2,-2.892119384
28115,GdErO3,-3.982438348
28116,Er2H16S3O20,-1.960377262
28117,Y5Dy11O24,-4.015578529
28118,Y7DyO12,-3.991563036
28119,Dy5(ReO6)2,-3.375114317
28120,La9ErO15,-3.872440786
28121,DyHoO3,-3.950087565
28122,DyInO3,-3.022748725
28123,YDyO3,-3.911466006
28124,Dy3Sb5O12,-2.684088192
28125,Dy2(SeO4)3,-2.02187145
28126,Dy2Pb2O7,-2.571584429
28127,Dy2SeO2,-3.371771418
28128,DySeO3,-2.542427295
28129,Eu2Mn2O7,-2.485717743
28130,DyWO4,-2.929887029
28131,HoErO3,-3.968718809
28132,Dy2WO6,-3.322420898
28133,Dy2P4O13,-3.18831087
28134,Er3Sb5O12,-2.690781939
28135,Er2Sb2O7,-2.847566304
28136,DyErO3,-3.966465169
28137,Dy2W2O9,-2.902990087
28138,Er(ReO4)3,-2.436586239
28139,Er2P4O13,-3.177253045
28140,ErTa7O19,-3.437473817
28141,Er2(WO4)3,-2.747559178
28142,Er2GeO5,-3.384551819
28143,Y3Dy29O48,-4.025144417
28144,ErLuO3,-4.0138907
28145,Dy5Ti5O17,-3.721818831
28146,DyTiO3,-3.647281462
28147,Dy2Mn2O7,-2.906459372
28148,KErO2,-3.159424266
28149,Dy2S2O,-3.043441754
28150,Dy2H16S3O20,-1.950962911
28151,ErPd,-0.93696182
28152,ErNi5,-0.339868623
28153,NaErSe2,-1.701822558
28154,Er2ZnOs,-0.325185329
28155,LiDyHg2,-0.442084567
28156,DyInRh2,-0.768837023
28157,LiDy2Ir,-0.575522425
28158,Er2IrPd,-0.955770672
28159,Er2IrRh,-0.936851053
28160,LiErTl2,-0.302317345
28161,LiEr2Ir,-0.606543088
28162,LiEr2Os,-0.275318631
28163,LiDy2Tc,-0.040213769
28164,Er2NiRu,-0.446120096
28165,LiErHg2,-0.42885543
28166,LiErIn2,-0.379721275
28167,LiEr2Rh,-0.52092973
28168,LiEr2Ru,-0.317604444
28169,DyGaRh2,-0.828128099
28170,ErMg3,-0.052481784
28171,DyHoMg2,-0.07769714
28172,Er2MgGe2,-0.751697925
28173,Sr(DySe2)2,-1.954221183
28174,PrDyMg2,-0.10189164
28175,Er2ZnIn,-0.394218455
28176,Er2ZnIr,-0.656729385
28177,Er2ZnRu,-0.393166654
28178,PmDyMg2,-0.098235614
28179,Er2ZnTc,-0.170486534
28180,ErSnRh2,-0.815203968
28181,Er2NiIr,-0.7000676
28182,ErMgSn,-0.543783467
28183,Er2RuRh,-0.687781961
28184,ErMgHg2,-0.445365911
28185,ErTaRu2,-0.435321877
28186,ErThTc2,-0.065253783
28187,Er2MgIn,-0.305002189
28188,ErGaRh2,-0.868242881
28189,ErPaTc2,-0.192084325
28190,ErRh2Pb,-0.572013147
28191,Dy2Ni12P7,-0.776456804
28192,Dy2NiIr,-0.651035555
28193,Dy2NiRu,-0.394440491
28194,Dy2IrRh,-0.877878485
28195,Dy2ZnOs,-0.291675834
28196,Dy2MgIn,-0.326905549
28197,Dy2ZnRu,-0.365123006
28198,EuLi2Ge,-0.37994145
28199,NaDyTl2,-0.235043066
28200,NaErTl2,-0.218626721
28201,DyMgZn2,-0.338350839
28202,Dy2ZnGa,-0.480456454
28203,Dy2ZnIn,-0.408998412
28204,EuLiTl2,-0.304625814
28205,Dy2RuPd,-0.657890366
28206,Dy2RuIr,-0.605040491
28207,Dy2IrPd,-0.905348848
28208,Dy2RuRh,-0.626617664
28209,DyZnRh2,-0.658025278
28210,DySnRu2,-0.351532587
28211,DyTaRu2,-0.368199793
28212,Li2ErTl,-0.20764218
28213,Li2ErIn,-0.27471872
28214,Li2DyIn,-0.29215053
28215,Li2DyTl,-0.22789463
28216,Eu3P,-0.395147157
28217,YbErRh2,-0.809894862
28218,YbDyRh2,-0.78249123
28219,YbErPd2,-0.903932257
28220,Yb(ErS2)2,-2.518536673
28221,ErI3,-1.34573533
28222,DyMgTl2,-0.207496561
28223,DyZrRu2,-0.495377088
28224,DyThTc2,-0.02740754
28225,DyTmMg2,-0.069199594
28226,ErNbOs2,-0.197675968
28227,Dy2Ge5Rh3,-0.787737246
28228,Dy(Ni2P)2,-0.835411977
28229,EuNaTl2,-0.263318267
28230,NdDyMg2,-0.099723044
28231,ErHg3,-0.321956095
28232,DyNbRu2,-0.293174735
28233,Er2RuPd,-0.703905974
28234,ErSnRu2,-0.39504382
28235,DySnRh2,-0.797123908
28236,DyLuMg2,-0.064678575
28237,ErTaOs2,-0.284212003
28238,Eu2NaSn,-0.285905974
28239,LiDyTl2,-0.317908663
28240,LiDy2Ru,-0.288660486
28241,LiEr2Tc,-0.062193121
28242,SmDyMg2,-0.09382359
28243,Er2OsPd,-0.605366074
28244,Er2RuIr,-0.670663219
28245,DyPaTc2,-0.14633562
28246,DyPaRu2,-0.409961228
28247,Eu3Tl,-0.171387405
28248,Er2NiOs,-0.353195156
28249,DyMgSn,-0.573281732
28250,Dy2MgTl,-0.234743771
28251,Eu3Sn,-0.413177714
28252,Eu2SnHg,-0.640379375
28253,ErH(SO4)2,-2.464520784
28254,LiDy2Os,-0.234533881
28255,DyMgHg2,-0.460788749
28256,DyMgRh2,-0.717797539
28257,ErPaRu2,-0.43731072
28258,ErNbRu2,-0.35257659
28259,Dy5P12Ru19,-0.86974208
28260,Er2S2O,-3.046590895
28261,Er2In,-0.350302815
28262,Er2Si5Ru3,-0.84862982
28263,ErPPd,-1.278078545
28264,Er3P4Pd7,-0.998981714
28265,KErTe2,-1.37984667
28266,Dy5Ni2Sb,-0.538292596
28267,RbErS2,-2.184820785
28268,ErF3,-4.49210896
28269,Dy3Fe2Si3,-0.663077763
28270,DyGeRh,-0.988365478
28271,EuMgF4,-3.90897032
28272,YDyHg2,-0.495315837
28273,YErRu2,-0.329527375
28274,Sm3Er,0.0181457
28275,SmErZn2,-0.327351065
28276,SmErRu2,-0.268861962
28277,SmErHg2,-0.46806181
28278,SmDyIr2,-0.72395824
28279,SmDyZn2,-0.32922113
28280,SmDyRh2,-0.801925493
28281,La3Er,0.016387407
28282,La(ErS2)3,-2.523195156
28283,LaEr3,0.046708861
28284,KErO3,-2.346814883
28285,LiDyIn2,-0.392907513
28286,HoErTl2,-0.311507072
28287,HoErZn2,-0.34533044
28288,NdErMg2,-0.091604661
28289,NdErTl2,-0.342640116
28290,NdErZn2,-0.318040231
28291,Rb3Er,0.621854954
28292,EuNi3,0.181127354
28293,RbErO3,-2.338640193
28294,RbDyO3,-2.310371455
28295,NdErIn2,-0.474614589
28296,NdDyTl2,-0.361309659
28297,Pr3Er,0.03066198
28298,GdEr3,0.010905491
28299,PrErZn2,-0.31124089
28300,PrEr3,0.0330904
28301,PrDyTl2,-0.36152969
28302,PrDyZn2,-0.314855817
28303,PrErMg2,-0.093758017
28304,PrErIn2,-0.465987895
28305,PrErTl2,-0.346838823
28306,HoErRh2,-0.929744785
28307,HoErRu2,-0.365507737
28308,EuReO3,-2.358540643
28309,HoErPd2,-0.92141116
28310,NaEr3,0.320304876
28311,LiEr2In,-0.257214615
28312,LiEr2Tl,-0.17703183
28313,LiEr2Ga,-0.310423364
28314,Pm3Er,0.024472978
28315,LaDyRu2,-0.199135557
28316,Li3Er,0.213826024
28317,EuYbIn2,0.948595396
28318,EuOsO3,-2.053690521
28319,ErInRh2,-0.798402023
28320,ErMgZn2,-0.327452724
28321,ErZnRh2,-0.696424875
28322,ErLuMg2,-0.05494265
28323,Dy2MgGe2,-0.775771987
28324,SmErMg2,-0.085789818
28325,SmDyRu2,-0.243109988
28326,SmDyTl2,-0.356698143
28327,SmErIn2,-0.469552098
28328,SmErTl2,-0.338272583
28329,SmEr3,0.027875357
28330,SmDyHg2,-0.471833043
28331,SmErRh2,-0.824337955
28332,SmDyIn2,-0.490134242
28333,YErIr2,-0.822198923
28334,YErZn2,-0.350478878
28335,YErIn2,-0.472520115
28336,YDyTl2,-0.35339279
28337,YDyZn2,-0.350672013
28338,YDyRh2,-0.86787834
28339,YErHg2,-0.491722998
28340,YErMg2,-0.086050565
28341,YbErZn2,-0.327825325
28342,YbErHg2,-0.557828518
28343,YbEr3,0.12401994
28344,YbErPt2,-1.20210177
28345,YbDyHg2,-0.56711218
28346,YbDyPd2,-0.894285997
28347,Tb3Er,0.016876033
28348,YDyIr2,-0.794286613
28349,YErRh2,-0.895286215
28350,Sr(DyS2)2,-2.512101426
28351,YErTl2,-0.335090593
28352,LaDyMg2,-0.100627387
28353,PmDyHg2,-0.471777659
28354,PmDyIn2,-0.487231669
28355,PmDyRu2,-0.222748174
28356,Er2MgTl,-0.207717301
28357,Er2PdRh,-0.934384785
28358,PmErIn2,-0.477073809
28359,Dy2OsPd,-0.557537561
28360,Dy2ZnIr,-0.627260742
28361,PmDyRh2,-0.778189982
28362,Dy2ZnHg,-0.397031498
28363,LiErSn,-0.632441573
28364,Dy2InHg,-0.475849915
28365,EuLu2O4,-3.828462481
28366,ErRu3,0.128091476
28367,ErTa3,0.36323474
28368,Er2Ge5Rh3,-0.763321019
28369,DyHoIn2,-0.466836335
28370,DyHoIr2,-0.828208948
28371,ErLu3,0.001632886
28372,EuIr2,-0.481469052
28373,ErSe2,-1.526369809
28374,NaDySe2,-1.708040751
28375,NaDyS2,-2.184028586
28376,F2,0
28377,EuTlS2,-1.509430341
28378,YSF,-3.361906312
28379,LiF,-2.907327903
28380,EuZnGe,-0.531687223
28381,Sn4SF6,-2.213882348
28382,EuKS2,-1.872247553
28383,EuHgPb,-0.449862502
28384,EuSnHg,-0.552469818
28385,SrF2,-4.079646089
28386,EuLiO2,-2.749261129
28387,EuMg3SiN4,-1.150813622
28388,EuNaGeO4,-2.560493693
28389,EuRb(PO3)4,-2.80594492
28390,Eu(NO3)3,-1.418790379
28391,EuK(PO3)4,-2.804221968
28392,YOF,-4.238365631
28393,NpF5,-3.639399064
28394,RuF6,-1.92527052
28395,Eu2TiO4,-3.462786283
28396,RhF6,-1.629804942
28397,TcF6,-2.325495063
28398,ReF6,-2.502107639
28399,EuSi2Ni,-0.649024428
28400,EuKPSe4,-0.976324552
28401,Tl2SnF6,-2.5683349
28402,TiTl2F6,-3.075595042
28403,Rb2SiF6,-3.455339404
28404,PdF2,-1.392640056
28405,ScF3,-4.32031412
28406,TbSF,-3.390413692
28407,EuZnSn,-0.547912917
28408,LiIrF6,-2.232317392
28409,K2IrF6,-2.489708184
28410,TbF3,-4.491130364
28411,RbF,-2.896491538
28412,Eu2LiIrO6,-2.43186934
28413,Rb3SiF7,-3.350243658
28414,YbLiF4,-3.349607929
28415,MgF2,-3.850813736
28416,NdSeF,-3.04084749
28417,NdTeF,-2.746167359
28418,SrPdF4,-2.883989467
28419,EuNbO4,-3.194262145
28420,Eu(ZnSn)2,-0.350298409
28421,LaF3,-4.334975307
28422,K3GdF6,-3.584182991
28423,K3YF6,-3.614372535
28424,Rb2UF6,-3.610568802
28425,NaSn2F5,-2.715167394
28426,ZnPbF6,-2.417758692
28427,PdF3,-1.593991968
28428,IrF4,-1.721430211
28429,PdF4,-1.513705527
28430,K3UF7,-3.52648864
28431,ZnSnF6,-2.769019546
28432,Rb2HfF6,-3.776885551
28433,Rb2GeF6,-3.062699817
28434,Rb2ThF6,-3.905020432
28435,ZnPdF6,-1.996628356
28436,Li2PdF6,-2.38115817
28437,Li2PtF6,-2.434294586
28438,NpF3,-3.749727864
28439,K2HfF6,-3.755417806
28440,NbF4,-3.207305265
28441,K2GeF6,-3.057970042
28442,Li4UF8,-3.490908917
28443,Na2UF6,-3.560895505
28444,K2ThF6,-3.923832457
28445,Sr2InF7,-3.708970908
28446,Sn3F8,-2.728129072
28447,EuLi2SiO4,-2.995899781
28448,Sb9S4F39,-2.532879741
28449,Sr2ScF7,-4.273520265
28450,Eu2Na2Ti3O10,-3.169442821
28451,GdSnF7,-3.558940842
28452,SrMgF4,-3.995526761
28453,KGaF4,-3.071886362
28454,TiTl3F6,-2.671182527
28455,ZrTiF6,-3.726806679
28456,SrSbF5,-3.388268388
28457,UOF4,-3.604705661
28458,K2YF5,-3.775460901
28459,EuK3(PO4)2,-2.849423765
28460,Na3TaF8,-3.384082333
28461,Na2GeF6,-3.010635056
28462,SmSnF7,-3.585499693
28463,PrPtF7,-2.927072169
28464,UF5,-3.823869613
28465,TlSnF7,-2.497333809
28466,HoPtF7,-2.939551478
28467,Lu3O2F5,-4.422548208
28468,Tb3KF10,-4.318828689
28469,PrF3,-4.270240075
28470,NbF3,-2.956727417
28471,Eu3IrO7,-2.612396934
28472,KPrF4,-3.997169779
28473,EuKPO4,-3.022829979
28474,NdF3,-4.267362123
28475,EuRbPO4,-2.989144108
28476,SiF4,-3.495155153
28477,YSnF7,-3.576810185
28478,UF3,-3.731560172
28479,SmZrF7,-4.251045717