id,Composition,FormationEnergy
26383,Tm(CuGe)2,-0.457608991
26384,La3SiCuSe7,-1.467221465
26385,Sm3CuSe6,-1.470236412
26386,DyGa2Cu3,-0.308052802
26387,KCuPSe3,-0.492920933
26388,Y3SiCuSe7,-1.314831282
26389,Pr3SiCuSe7,-1.367356095
26390,TiCu2P,-0.571758033
26391,Dy3SiCuSe7,-1.312107182
26392,LiCu2Sn,-0.188859495
26393,Cu8GeSe6,-0.109754583
26394,Sm3CuSnSe7,-1.296596612
26395,Cu2P8Se3I2,-0.138231829
26396,CuP4Se4I,-0.146840041
26397,Cu2Mo3Se4,-0.369639778
26398,NaHf2CuSe5,-1.161189709
26399,Ho3SiCuSe7,-1.298026399
26400,TbCuS2,-1.715920767
26401,Cu3PSe4,-0.144100053
26402,Cu2Pb(SeO3)3,-1.228214664
26403,GdCu(MoO4)2,-2.333131191
26404,DyCuPbSe3,-1.011316738
26405,KTa(CuSe2)2,-0.740300207
26406,Fe2CuS3,-0.375501417
26407,CuSb2(XeF8)2,-2.017460931
26408,LaCuSO,-2.407106107
26409,U3CuO10,-3.206169522
26410,Rb3(Cu4Se3)2,-0.453824912
26411,PrCuSO,-2.294238578
26412,K3Nb2CuSe12,-0.709026287
26413,RbTa(CuTe2)2,-0.454994849
26414,InCu(MoO4)2,-1.855443362
26415,U3Cu2S7,-1.510834999
26416,CuSb(MoO4)2,-1.799240271
26417,Cu2SbO5,-0.154557108
26418,TmInCu2,-0.323107209
26419,Na3CuSnSe4,-0.737985623
26420,Cu6Mo5O18,-1.582765458
26421,Na2VCuF7,-2.775628092
26422,HoCuPbSe3,-1.009291339
26423,EuK(CuTe2)2,-0.672369879
26424,La3Cu4(P2O)2,-1.546378542
26425,CuH12(IN)4,-0.49956165
26426,La(CuSn)2,-0.456313039
26427,KV(CuS2)2,-1.156806621
26428,K3Th2Cu3S7,-1.638932255
26429,Cu3Mo2O9,-1.529615654
26430,TmCuPbSe3,-0.998611133
26431,YbMn4(CuO4)3,-1.785068267
26432,TmMn4(CuO4)3,-1.848641621
26433,Er(CuTe)3,-0.531187005
26434,Tm(CuTe)3,-0.525840594
26435,VInCuO5,-1.882370408
26436,GdMn4(CuO4)3,-1.773396956
26437,EuMn4(CuO4)3,-1.764740665
26438,Nd3SiCuSe7,-1.36072447
26439,Cu3H2(OF2)2,-1.560061741
26440,Cu3Sn4PbO12,-1.642193
26441,Yb23Mg4Cu7,-0.150446482
26442,Y5CuPb3,-0.512467406
26443,Cu12Sb4S13,-0.520071827
26444,ThMn4(CuO4)3,-1.956564156
26445,Cu4Mo5O17,-1.691497871
26446,Fe2Cu6SnS8,-0.622704622
26447,Rb2Cu2(MoO4)3,-1.889648747
26448,MgMn3(CuO4)2,-1.840378392
26449,K2Cu(PO3)4,-2.49846051
26450,KNb(CuSe2)2,-0.733191134
26451,Nd12Cu6O25,-2.891397795
26452,RbCuPO4,-2.149851774
26453,Th2Cu(PO4)3,-3.185800074
26454,Fe(CuS)2,-0.392607558
26455,Cu3(P2O7)2,-2.036346138
26456,CuGe2P3,0.052978475
26457,Ti10Cu7S20,-1.416642773
26458,Tl8Cu4F11,-1.562447938
26459,SiCu2Te3,-0.072249284
26460,La12Cu10O31,-2.549669929
26461,ErCuSe2,-1.195398994
26462,Ho7(CuTe4)3,-1.125378061
26463,Tl2CuF3,-1.698256242
26464,DyCuSe2,-1.213142859
26465,Na7Cu3O8,-1.432929872
26466,Nb3(CuTe3)2,-0.081784988
26467,Cu(Mo3S4)2,-0.976142886
26468,Cu3(Mo3S4)4,-0.93371922
26469,FeCu5S4,-0.424023769
26470,YCuSe2,-1.216237282
26471,Cu11Sb4S13,-0.469015488
26472,Dy7(CuTe4)3,-1.139197376
26473,Ti8Cu3S16,-1.542268095
26474,Ta4Cu2O11,-2.839084175
26475,Cu8NO11,-0.885694195
26476,Ta14(CuS8)3,-1.40115813
26477,ZrCuF3,-2.431034288
26478,LuCuSe2,-1.180478919
26479,Eu2KCuS6,-1.483864357
26480,K2Dy4Cu4S9,-1.745233241
26481,K2Ho4Cu4S9,-1.743097269
26482,SrIn6Cu7,-0.12294524
26483,Cu2Hg2SF6,-1.59532383
26484,Tb11CuSe16,-1.706715605
26485,FeCu3S8,-0.625230856
26486,Sc14Cu14O37,-2.485433275
26487,Er7(CuTe4)3,-1.107981937
26488,Sc13Cu13O33,-2.514534712
26489,InCu(WO4)2,-1.921912358
26490,Na2Cu(HO)4,-1.421294575
26491,ScCuS2,-1.61809626
26492,YbCu(MoO4)2,-2.171230593
26493,KV3Cu5O13,-1.681453296
26494,Li(CuP)2,-0.322342607
26495,MgCuP,-0.436488711
26496,KCuSe,-0.686349286
26497,V2Cu3H6O11,-1.533493439
26498,RbCuO2,-1.366964483
26499,LiSiCu2,-0.221162003
26500,Li6CuO4,-1.837756587
26501,Na5Cu7O13,-1.171831302
26502,Dy2CuO4,-3.124100714
26503,LiCu2F4,-2.017119721
26504,Li4CuF5,-2.712576781
26505,LiCuF2,-2.212608941
26506,Li2Cu2F5,-2.276503455
26507,Li2CuF4,-2.536657345
26508,Li3CuF4,-2.628477822
26509,LiCu3F7,-2.023290767
26510,Sc5Cu5O13,-2.545502097
26511,LiCu5F12,-1.968642838
26512,Li3CuF6,-2.615997908
26513,Li3(CuO)4,-1.305987332
26514,Li4CuF7,-2.626181014
26515,Li6CuF8,-2.872245185
26516,Li2Cu7F16,-1.953309894
26517,Li3Cu2F8,-2.381231159
26518,Li5CuF8,-2.776819747
26519,Mg9CuO10,-2.822668028
26520,La5Cu5O13,-2.526710248
26521,TiCuGe,-0.341396151
26522,Cu4PtO5,-0.913782639
26523,Er2CuO4,-3.147004729
26524,ZnCu2O3,-1.1363351
26525,Li3Cu4F9,-2.153409053
26526,Sm2Cu2O5,-2.485251666
26527,Ho2CuO4,-3.136403254
26528,Sr2CuO4,-2.191774629
26529,Na3CuO2,-1.350201662
26530,Y2CuO4,-3.064331408
26531,HoCuO2,-2.770768608
26532,Na2CuO2,-1.34458182
26533,Na5CuO4,-1.362872044
26534,NaCu2O3,-1.14668841
26535,Lu(CuO2)2,-2.107778856
26536,Na6CuO4,-1.33097043
26537,Sc(CuO2)2,-1.884720196
26538,Ti2Cu3Te3O16,-1.710165416
26539,Y4Cu2O7,-3.112529889
26540,Li5CuSO2,-1.671221616
26541,LiFeCuS2,-0.80102481
26542,LiTa2CuO6,-2.783813829
26543,NaCu3O4,-1.127453429
26544,TaCuO3,-2.52087597
26545,Cu(SbO2)2,-1.487916845
26546,LiCu3O4,-1.156892743
26547,Li3CuO2,-1.657205568
26548,CuTe(PO4)2,-2.040129496
26549,LiNd6(CuO6)2,-3.070870675
26550,La12Cu6O25,-2.953012968
26551,Na7Cu7O13,-1.306809876
26552,Na5Cu(HO2)2,-1.496071108
26553,Li4Cu3F10,-2.369488997
26554,Li7(CuO2)6,-1.48700449
26555,Li5CuF6,-2.786890982
26556,Na(Cu3O4)2,-1.007744801
26557,LiCu2F7,-1.879560095
26558,Na5CuHO4,-1.445847435
26559,LiCu3F10,-1.79935303
26560,Li2CuF6,-2.231815481
26561,Li3CuF5,-2.649951603
26562,Na3Cu5O4,-1.066877467
26563,Sr16Cu8O23,-2.437455429
26564,Li3Cu2F7,-2.443258353
26565,Mg7Cu2O9,-2.535677174
26566,Li5(CuO2)3,-1.60940751
26567,Li2Cu3F11,-2.013878105
26568,Li4Cu5F17,-2.169868921
26569,Li5Cu3F14,-2.324795319
26570,CuNi3O4,-0.845577701
26571,Li2Cu3F7,-2.129286837
26572,Na4Cu6O5,-1.077116883
26573,Na2CuP,-0.374210586
26574,Li2Cu5F12,-2.080014025
26575,Mn11Cu7O24,-1.629630154
26576,Sr8Cu8O17,-2.033956186
26577,Sr4Cu2O7,-2.353888059
26578,La6Cu6O17,-2.463902427
26579,LiNd14(Cu3O14)2,-3.024744981
26580,V6Cu2O15,-2.136115722
26581,CuNi9O10,-0.902401511
26582,Li3Ta5Cu2O15,-2.859907846
26583,Cu2(SO4)3,-1.585694708
26584,Li3Cu2(SO4)3,-1.962097378
26585,Li2Cu2(SO4)3,-1.897658076
26586,Cu(NiO2)2,-0.831201484
26587,Mn(Cu3O4)2,-1.125112156
26588,SmCuO3,-2.420444367
26589,Li3Cu5O4,-1.15743591
26590,Cu2NiO4,-0.763398742
26591,Dy2Cu2O5,-2.618582801
26592,MnV4CuO12,-2.154341402
26593,Mn4CuO8,-1.694692151
26594,Li3Cu5O8,-1.247538158
26595,Mn3CuO8,-1.45928176
26596,Li4Cu3WO8,-1.702345457
26597,La4CuO8,-3.121501734
26598,Cu2W2O7,-1.669170928
26599,CuNi4O5,-0.870532706
26600,Mn5CuO12,-1.570938055
26601,Na7(CuO3)2,-1.401153416
26602,V3Fe2CuO12,-1.980959396
26603,LiLa8Cu3O16,-3.084378833
26604,Li15Zr7(Cu3O14)2,-2.509771741
26605,Li3La14(CuO7)4,-3.155635706
26606,LiLa14(Cu3O14)2,-3.049240583
26607,V3CuO8,-2.05375035
26608,LiLa7(CuO7)2,-3.14771581
26609,La8Cu3O16,-3.075158064
26610,TiV4CuO12,-2.350990061
26611,Na14Cu2O9,-1.361344918
26612,Li7CuO4,-1.819908162
26613,NaCu3O2,-0.894843324
26614,SmSiCu,-0.641465777
26615,ErSiCu,-0.667736682
26616,LuSiCu,-0.651243257
26617,TlCu4S3,-0.460506918
26618,Rb3Cu5O4,-1.092535841
26619,SmCuP2,-0.850104832
26620,V4CuNiO12,-2.015382879
26621,KGd2CuSe4,-1.523590231
26622,Cu3Mo2(HO5)2,-1.497262949
26623,KTm2Cu3Se5,-1.112515268
26624,KNpCuS3,-1.49545684
26625,K2Y4Cu4Se9,-1.293214332
26626,K2TaCuSe4,-0.956132302
26627,K2NbCuSe4,-0.941968004
26628,DyCuSeO,-2.160237946
26629,KZrCuSe3,-1.123963382
26630,TiTlCuTe3,-0.466149319
26631,HfTlCuS3,-1.335229658
26632,K2Dy4Cu4Se9,-1.291146193
26633,ZnSi(CuS2)2,-0.883269979
26634,KCu3S2,-0.688205151
26635,Ti2Zn(CuO4)2,-2.094723586
26636,MgTi2(CuO4)2,-2.325885665
26637,MgTa2(CuO4)2,-2.471839287
26638,MgCu2(SbO4)2,-1.62809486
26639,Ta2Zn(CuO4)2,-2.235678715
26640,ZnCu2(SbO4)2,-1.398344292
26641,ZnCu2(TeO4)2,-1.246045247
26642,MgCu2(TeO4)2,-1.489232047
26643,MgCu3P3O13,-1.980692537
26644,ZnCu3P3O13,-1.817608245
26645,MgCu2(SnO4)2,-1.606624947
26646,ZnCu2(SnO4)2,-1.386638328
26647,V2Zn(CuO4)2,-1.806696276
26648,Mn2Zn(CuO4)2,-1.231655852
26649,MgCu2(WO4)2,-1.84448156
26650,MgCu2(MoO4)2,-1.867707097
26651,MgMn2(CuO4)2,-1.457737978
26652,ZnFe2(CuO4)2,-1.149501998
26653,MgFe2(CuO4)2,-1.364504114
26654,ZnCu2(MoO4)2,-1.633023229
26655,ZnCu2(WO4)2,-1.611196192
26656,MgCu2(NiO4)2,-0.859489189
26657,ZnCu2(NiO4)2,-0.653139603
26658,Sr2Y2Cu2O7,-2.72697293
26659,Sr9Zn3(CuO7)2,-2.426239441
26660,YMn4(CuO4)3,-1.846990656
26661,Sr9Zn2(CuO7)2,-2.350239113
26662,YCu3(WO4)6,-1.879753787
26663,Mg2CuSbO6,-2.053357204
26664,Mg2Nb2CuO8,-2.711655846
26665,Y2Cu3(WO4)6,-2.184366142
26666,ZnCu4(SnSe4)2,-0.299257152
26667,Zn3Cu10(TeO6)6,-1.128963153
26668,Y8Si3(CuSe7)3,-1.162698476
26669,Y7Si3(CuSe7)3,-1.000788553
26670,Y8Cu3(GeSe7)3,-1.11423632
26671,Y7Cu3(GeSe7)3,-0.949382557
26672,ZnCu2GeSe4,-0.358838325
26673,ZnCu2GeS4,-0.780552454
26674,Y3CuGeSe7,-1.268155921
26675,Sr9Zn4(CuO7)2,-2.505143791
26676,YCu(WO4)2,-2.378827395
26677,ZnCu(PO3)4,-2.356629444
26678,MgCu(PO3)4,-2.547082156
26679,YTi4(CuO4)3,-2.803443324
26680,YCu3(SnO3)4,-1.902596017
26681,YV4(CuO4)3,-2.20890446
26682,YFe4(CuO4)3,-1.747733237
26683,YCu3(MoO3)4,-1.934404863
26684,YCu3(NiO3)4,-1.205770885
26685,YCu3(WO3)4,-1.858661736
26686,Ta2Zn2CuO8,-2.446963957
26687,Mg2Ta2CuO8,-2.874847929
26688,Mg4Cu5(TeO6)3,-1.718236062
26689,Sr2TiCu2O7,-2.252470966
26690,Sr2YCu3O7,-2.196826822
26691,Sr2Cu2SbO7,-1.790989722
26692,Sr2Cu2TeO7,-1.732244029
26693,Sr2Cu2SnO7,-1.853088965
26694,Sr2TaCu2O7,-2.190618324
26695,Mg3Si3(CuO6)2,-2.523727131
26696,Zn3Si3(CuO6)2,-2.054820186
26697,Zn2CuSbO6,-1.494128634
26698,Nb2Zn2CuO8,-2.282427957
26699,Y2Si3(CuO4)3,-2.485897648
26700,Mg2TaCuO6,-2.52058855
26701,Zn3Cu2(GeO4)3,-1.575663847
26702,Mg3Cu2(GeO4)3,-2.029049854
26703,TaZn2CuO6,-1.973879559
26704,Mg3Si4(CuO7)2,-2.646165296
26705,Zn3Si4(CuO7)2,-2.284763384
26706,MgSi2CuO6,-2.705424838
26707,ZnSi2CuO6,-2.434047195
26708,Mg2CuWO6,-2.26501544
26709,Zn2CuWO6,-1.683427326
26710,MgCuP2O7,-2.496622448
26711,ZnCuP2O7,-2.215535001
26712,ZnCu3(P2O7)2,-2.045122723
26713,ZnCuSb2O7,-1.482085281
26714,MgCuSb2O7,-1.771097695
26715,MgTa2CuO7,-2.771658507
26716,Ta2ZnCuO7,-2.497315424
26717,MgV2CuO7,-2.23774529
26718,V2ZnCuO7,-1.972590048
26719,ZnCuMo2O7,-1.713692869
26720,MgCuMo2O7,-2.037706099
26721,MgCuW2O7,-2.017373265
26722,ZnCuW2O7,-1.647128884
26723,MgTi4(CuO4)3,-2.593443854
26724,Ti4Zn(CuO4)3,-2.439039372
26725,MgCu3(SnO3)4,-1.719809287
26726,ZnCu3(SnO3)4,-1.574111324
26727,MgCu3(SbO3)4,-1.545089675
26728,ZnCu3(SbO3)4,-1.401605777
26729,ZnCu(GeO3)2,-1.719168774
26730,MgCu(GeO3)2,-2.042361246
26731,MgFe4(CuO4)3,-1.500339051
26732,Mn4Zn(CuO4)3,-1.465755226
26733,ZnCu3(MoO3)4,-1.621115373
26734,Sr2Cu2MoO7,-1.851287558
26735,MgMn4(CuO4)3,-1.617181147
26736,MgV4(CuO4)3,-1.995709518
26737,ZnCu3(NiO3)4,-0.775510392
26738,ZnFe4(CuO4)3,-1.349230249
26739,V4Zn(CuO4)3,-1.843139456
26740,MgCu3(MoO3)4,-1.775166647
26741,MgCu3(NiO3)4,-0.930578776
26742,ZnCu3(WO3)4,-1.535227428
26743,MgCu3(WO3)4,-1.692822457
26744,Sr2FeCu2O7,-1.748610924
26745,MgSi4CuO10,-2.907536494
26746,ZnSi4CuO10,-2.71804013
26747,Sr2Cu2WO7,-1.815206062
26748,Sr2VCu2O7,-2.020893404
26749,Sr2Cu2NiO7,-1.482009788
26750,Si2Cu13(SbO14)2,-1.232540848
26751,PrMg(CuO3)2,-1.940889953
26752,PrZn(CuO3)2,-1.660675077
26753,ZnCu2(PO4)2,-1.993036015
26754,MgCu2P2O9,-2.050611495
26755,ZnCu2P2O9,-1.825921244
26756,DyP,-1.078685349
26757,DySb,-1.13319511
26758,SmCu(WO4)2,-2.362955004
26759,DySb2,-0.205114003
26760,DyS2,-2.112039873
26761,DyTe2,-1.151509652
26762,DySe2,-1.562191574
26763,LiY(CuP)2,-0.803539709
26764,YbLi(CuP)2,-0.696375253
26765,Sr2Cu(OF)2,-2.993087406
26766,Cu2SnHgS4,-0.624254846
26767,DyTe3,-0.564891479
26768,ZnCu2SnS4,-0.787086218
26769,FeSi(CuSe2)2,-0.245257726
26770,MnCu2SnTe4,-0.13901938
26771,MnSi(CuTe2)2,-0.091209153
26772,LaCuTeS,-1.470513142
26773,Dy,0
26774,RbNd2CuS4,-1.959697273
26775,RbSm2CuS4,-1.972387391
26776,Sr2Cu(PO4)2,-2.898616257
26777,Cu2HgGeS4,-0.618512184
26778,Tb2Cu(GeO3)4,-2.533163836
26779,DyHg2,-0.384518877
26780,DyTl,-0.3386154
26781,DyNi5,-0.334336022
26782,DySi,-0.833045921
26783,Rb2TaCuS4,-1.438074603
26784,MnSi(CuS2)2,-0.840518938
26785,K2SrCu(NO2)6,-1.289004686
26786,LiCu(PO3)3,-2.416588493
26787,RbGd2CuS4,-1.987028545
26788,SrCuSF,-2.354700351
26789,Dy3Pd2,-0.742384289
26790,Dy2S3,-2.474585655
26791,EuTmCuS3,-2.003695671
26792,ZnCu2GeTe4,-0.184882099
26793,Cu2HgGeSe4,-0.245104466
26794,Dy2O3,-3.967200669
26795,SrLuCuS3,-2.019137337
26796,RbUCuS3,-1.542197383
26797,Dy2Sb5,-0.645184582
26798,DyIr2,-0.812567085
26799,K2NaCuF6,-2.594336486
26800,DyRh2,-0.757290677
26801,DyN,-1.894967761
26802,La2CuSnO6,-2.791596069
26803,Sr2HoCu3(PbO4)2,-2.086144167
26804,Sr2ErCu3(PbO4)2,-2.08756004
26805,SrSi4CuO10,-3.028439628
26806,SrCuP2O7,-2.670268358
26807,Rb2VCuS4,-1.368429463
26808,Rb2NbCuS4,-1.402191315
26809,Rb2NbCuSe4,-0.960770522
26810,DyMg3,-0.075154709
26811,Sr2Si2CuO7,-2.991581871
26812,Sr3Sc2Cu2S2O5,-2.758307365
26813,RbV(CuS2)2,-1.170486993
26814,Ho2Cu(GeO3)4,-2.540424891
26815,Er2Cu(GeO3)4,-2.543530107
26816,SrCu2GeSe4,-0.696502976
26817,KEr2CuSe4,-1.498937887
26818,EuSr2Nb(CuO4)2,-2.596697413
26819,RbEr2Cu3Se5,-1.116024826
26820,SrCu2SnS4,-1.1110209
26821,SrCu3(SnO3)4,-1.852958847
26822,Pr3CuSnSe7,-1.318608988
26823,Sr2CuGe2O7,-2.404505364
26824,RbEr2Cu3S5,-1.547837687
26825,SrPrCuSe3,-1.538324056
26826,SrDy2CuO5,-3.10143311
26827,SrHo2CuO5,-3.113501699
26828,Sr2Cu(SeO3)3,-1.927998531
26829,Sm2Cu(SeO3)4,-2.017712961
26830,RbHo2Cu3S5,-1.548327608
26831,Rb2Cu2SnS4,-0.960637603
26832,Tb3CuSnSe7,-1.274762957
26833,Tl2Cu2SnS4,-0.609237991
26834,Sr3CuRhO6,-2.281251657
26835,Sr2SmNb(CuO4)2,-2.718320599
26836,Na2Cu3(GeO3)4,-1.776859483
26837,SrCu2GeS4,-1.129466823
26838,Dy4Sb3,-0.993927204
26839,K2CuPb(NO2)6,-1.09895612
26840,Sc2Cu2Ge4O13,-2.338018594
26841,DySn2,-0.589101797
26842,EuSr2Cu3(PbO4)2,-1.962847352
26843,DyGa2,-0.64488133
26844,Sr2SmTa(CuO4)2,-2.789866599
26845,DyGe,-0.875176757
26846,DyIn3,-0.417968505
26847,DyTh,0.148726125
26848,Sr2SmCu3(PbO4)2,-2.068498662
26849,MnCu2GeS4,-0.735409802
26850,ZrSiCuP,-0.717589146
26851,DyMn12,-0.001744812
26852,DyMg,-0.087748032
26853,DyGe3,-0.457531522
26854,SrCuSeF,-2.153966889
26855,Dy2In,-0.360442432
26856,CuP2PbO7,-2.257892425
26857,DyTe,-1.279281125
26858,CuGe5Pb3O14,-1.896043157
26859,YTl5Cu2(NO2)12,-0.917075973
26860,FeCu2GeS4,-0.661311309
26861,Dy2Cu(GeO3)4,-2.537197436
26862,DyPd,-0.90608295
26863,Sr2DyCu3(PbO4)2,-2.085997959
26864,SmCuSeF,-1.887934019
26865,InCu(PSe3)2,-0.201854435
26866,Rb2CuPb(NO2)6,-1.108832516
26867,Sr2GdCu3(PbO4)2,-2.068433336
26868,DyZn,-0.338808
26869,DyRh,-0.89557702
26870,CuH2SeO5,-1.157593656
26871,K2CuH12(SO7)2,-1.67134689
26872,DyTl3,-0.213287343
26873,DyH2,-0.788733386
26874,CuP2(HO)4,-1.220970535
26875,CuH2(SeO3)2,-1.210184307
26876,DyIr3,-0.406989865
26877,Tl2CuH12(SO7)2,-1.536173201
26878,Rb2CuH12(SO7)2,-1.67136836
26879,DyHg,-0.47912733
26880,CuH2SO5,-1.564969477
26881,DyPt3,-1.02575746
26882,DyS,-2.330249277
26883,DyMn2,0.141538269
26884,CuPO4F,-1.746889546
26885,LiCuPO4F,-2.168017201
26886,LiCuPO4,-2.196505179
26887,DyIn,-0.468094815
26888,Li3Cu2P5O16,-2.398536119
26889,Li2CuP2O7,-2.423510683
26890,LiCu(PO3)2,-2.328141119
26891,Li4Cu(PO4)2,-2.49790679
26892,Li3Cu(PO4)2,-2.359409431
26893,Li5Cu(PO4)2,-2.536271612
26894,Li2Cu(PO3)4,-2.480995303
26895,LiCu(PO3)4,-2.359187121
26896,Li6Cu9(PO4)8,-2.129536851
26897,LiCu2P3O10,-2.224806778
26898,Li2CuPO4,-2.314832938
26899,LiCu4(PO4)3,-1.971723516
26900,LiCu5P3O13,-1.871603252
26901,Li2Cu3(P2O7)2,-2.231016682
26902,DyNi,-0.458272607
26903,Dy5Si3,-0.686720128
26904,DyMg2,-0.071960995
26905,DyRh5,-0.29412995
26906,Dy5Ru2,-0.364891512
26907,Dy5Sn3,-0.724595321
26908,Dy11Sn10,-0.735885831
26909,Dy2Tl,-0.261864633
26910,DyZn5,-0.279348132
26911,Dy2Zn17,-0.231436116
26912,Dy6Se11,-1.673229209
26913,NdTi3Fe(CuO4)3,-2.557638508
26914,FeCu2H21(O5F4)2,-1.602454313
26915,DyNi2,-0.452539557
26916,Cu2PO4F,-1.865384982
26917,CuH20S2(NO7)2,-1.364984106
26918,Sr3CuIrO6,-2.277584197
26919,SrV2CuO7,-2.358474177
26920,KMgV3Cu4O13,-1.911319272
26921,LiVCuO4,-1.968258142
26922,TmCu(WO4)2,-2.395337537
26923,LuCu(WO4)2,-2.398485187
26924,ErCu(WO4)2,-2.389591832
26925,DyCu(WO4)2,-2.386839235
26926,NaZrCuSe3,-1.059374222
26927,TbCu(WO4)2,-2.376094866
26928,Sr3Fe2Cu2S2O5,-2.047494609
26929,Sr2FeCuSO3,-2.211734786
26930,Dy3CuGeSe7,-1.265729827
26931,Dy3Ge5,-0.709599695
26932,Sr2Cu2Ni(SO)2,-1.50805968
26933,Dy2Te,-0.877001547
26934,Sr2MnCuSO3,-2.247357054
26935,TlV3Cu5O13,-1.591877359
26936,CuP(HO)5,-1.484829445
26937,La3CuGeSe7,-1.41958986
26938,Rb2CuH12(SeO7)2,-1.424174091
26939,Fe2Cu(P2O7)2,-2.390388664
26940,CuPH6NO5,-1.437170193
26941,Sr2CuWO6,-2.478147433
26942,CuNi2(PO4)2,-1.952284569
26943,Cu2PHO5,-1.689296644
26944,Sr3La21Zn2(Cu5O24)2,-2.949375239
26945,V2Cu3H24(OF)12,-1.74880967
26946,Sr2NdGaCu2O7,-2.476336888
26947,Sr2ErGaCu2O7,-2.51343829
26948,Sr2HoGaCu2O7,-2.511420777
26949,TbSr2GaCu2O7,-2.508234936
26950,Sr2SmGaCu2O7,-2.490359262
26951,Sr2PrGaCu2O7,-2.467712679
26952,Sr2LaGaCu2O7,-2.493138642
26953,RbCuSnS3,-0.976196189
26954,Mn2Cu3H24(OF)12,-1.689675938
26955,FeCuPO5,-2.037956876
26956,Dy5Ga3,-0.489970694
26957,YCuPbS3,-1.440769681
26958,Dy5Si4,-0.749248393
26959,KNaSi4CuO10,-2.815170798
26960,KNa2CuO2,-1.357303272
26961,Sr2CuOsO6,-2.166546316
26962,LaCuTeO,-2.082774835
26963,Sr2Cu(IO)2,-1.942549622
26964,Sr2Cu3(IO2)2,-1.205122809
26965,CuSb2H12(O3F4)2,-1.807197833
26966,Li2Si4Cu5O14,-2.18067059
26967,Na8Nb2Cu4S21,-1.047937981
26968,Sm3SiCuS7,-1.934776832
26969,KZrCuF7,-3.215430841
26970,Nd3CuGeS7,-1.850790261
26971,Sr2YCu3(PbO4)2,-2.074321882
26972,K2CuH12(SeO7)2,-1.423954882
26973,Ho3CuSnS7,-1.794263013
26974,KNaCu3S3O13,-1.849398409
26975,NaCuPO4,-2.163246185
26976,Er3CuGeS7,-1.802867702
26977,Zr2Cu3H32(O8F7)2,-1.848285331
26978,Sr2MnCu2(SO)2,-1.787410277
26979,SrCuH6O5,-1.611629526
26980,Ho3CuGeS7,-1.81339816
26981,La3CuS3O2,-2.807705789
26982,SiCu2PbS4,-0.80247724
26983,Na2Si4Cu2H4O13,-2.274276299
26984,Sm3CuGeS7,-1.844418016
26985,Dy3S4,-2.370356361
26986,HoCu(WO4)2,-2.387358283
26987,K2ZnCu3P3O12F,-2.203770497
26988,Na2Zr(CuS2)2,-1.326531343
26989,Sr2YGaCu2O7,-2.498458876
26990,K2Cu3Ge5O14,-1.841054584
26991,Y3CuGeS7,-1.820567486
26992,K2Cu3S3O13,-1.857962763
26993,Na2CuP2O7,-2.391544149
26994,CuH12(N5O4)2,-0.611096983
26995,Pr3CuGeS7,-1.852936382
26996,Na2Cu(PO3)4,-2.475021215
26997,Cu6GeWS8,-0.724960174
26998,TbCu(MoO4)2,-2.350585604
26999,Tb3CuGeS7,-1.833321979
27000,SrCu(TeO3)2,-1.859537967
27001,Dy3SiCuS7,-1.913512988
27002,UCu2(PO5)2,-2.493520043
27003,Nd2Cu(GeO4)2,-2.682742259
27004,Dy3CuGeS7,-1.824359184
27005,Tl2Cu3(SeO3)6,-1.159425618
27006,Er3SiCuS7,-1.890930834
27007,K3Cu(NO3)5,-1.291073442
27008,La5Ti2CuS5O7,-3.132686168
27009,Pr3CuSnS7,-1.832698607
27010,Na6Cu9(PO4)8,-2.114772369
27011,Tb3SiCuS7,-1.922730029
27012,Sr3Cu3(PO4)4,-2.638738614
27013,La4Mn(Cu3S5)2,-1.515069176
27014,KMg2V3(CuO6)2,-2.255755307
27015,Sr3Fe2Cu2Se2O5,-1.927650494
27016,Rb2V2Cu(PO6)2,-2.388706831
27017,Fe2Cu3(SeO3)6,-1.284288543
27018,HoCu(MoO4)2,-2.348539897
27019,SmCu(MoO4)2,-2.344303114
27020,NdCu(MoO4)2,-2.340676551
27021,In2Cu3(PO4)4,-2.174426915
27022,Fe5Cu2(PO4)6,-2.296249811
27023,PrCu(MoO4)2,-2.338269513
27024,Tb3CuGeSe7,-1.276680383
27025,ErCuPbSe3,-1.004696269
27026,DyFe5,-0.049934957
27027,Dy2Sn5,-0.512259614
27028,Dy5In3,-0.400614236
27029,Gd3CuGeSe7,-1.288925809
27030,SrLuCuSe3,-1.533345923
27031,Tb3SiCuSe7,-1.323929281
27032,Gd3CuSnSe7,-1.286908475
27033,Nd3CuGeSe7,-1.31284004
27034,TlCuPSe3,-0.245293622
27035,Dy5Pb3,-0.544627482
27036,Dy10Si17,-0.67782589
27037,Sm3SiCuSe7,-1.347370239
27038,DyZn2,-0.390684542
27039,Sm3CuGeSe7,-1.299203429
27040,DyGa3,-0.521293214
27041,Hf3Tl2(CuSe4)2,-0.964851194
27042,Nb2Tl3CuSe12,-0.455066078
27043,DySn3,-0.407433802
27044,Pr3CuGeSe7,-1.31893423
27045,Dy3Se4,-1.774361388
27046,Sr8In4Cu3N5,-0.597790507
27047,Na2Si4Cu5O14,-2.152361932
27048,Gd3CuGeS7,-1.835982118
27049,Dy5Sn13,-0.497725497
27050,RbGd2CuSe4,-1.517162147
27051,Dy5Sn11,-0.556118391
27052,La4Cu6(MoO4)9,-2.229305188
27053,YCu(MoO4)2,-2.339966993
27054,K3Nb2Cu3S8,-1.285434879
27055,KUCuSe3,-1.060258237
27056,EuCu(MoO4)2,-2.193916199
27057,SrCu2(PO4)2,-2.377462056
27058,La3CuGeS7,-1.951038719
27059,Cu2P2PbO8,-2.034455808
27060,LuCuPbSe3,-0.989097948
27061,LiCu2P5O16,-2.234225749
27062,TbCuPbSe3,-1.013145401
27063,NaSr7Cu8(SF)8,-2.279511042
27064,Cu2GeP2(H5O7)2,-1.689461495