id,Composition,FormationEnergy
11735,Bi3Ir3O11,-1.447434138
11736,K3BePCO7,-2.469314774
11737,KCaBi,-0.698599707
11738,Bi19O30,-1.585470667
11739,HgBiO3,-1.10808971
11740,Ti11BeO20,-3.372594809
11741,NaBe4SbO7,-2.729892395
11742,Dy(Bi3O5)4,-1.767285009
11743,PuBiPd2,0.118375436
11744,Pu2HgBi,-0.223227381
11745,LiBiRh2,-0.2916477
11746,LiBiPd2,-0.449638162
11747,PuBi3,0.397566688
11748,BeFe2Si,-0.398955345
11749,BeGeRu2,-0.284432599
11750,SmBiPd2,-0.727320895
11751,PmBiPd2,-0.726258997
11752,KNa2Bi,-0.38890955
11753,Na2TlBi,-0.292596673
11754,NaLi2Bi,-0.489644819
11755,NaTl2Bi,-0.175161339
11756,EuBi3,-0.464431421
11757,Li2TlBi,-0.375899253
11758,PaBi3,-0.102822703
11759,CaBi3,-0.384526715
11760,KTl2Bi,-0.20114053
11761,Ti3Bi,-0.087427049
11762,La3ScBeS7,-2.29791641
11763,LaBi3,-0.561756519
11764,BeVFe2,-0.22714731
11765,CsK2Bi,-0.36345677
11766,RbTl2Bi,-0.168873265
11767,BeFeRh2,-0.324132305
11768,Nd2Be2SiO7,-3.541377902
11769,BiI4,-0.266107327
11770,HfBiRh,0.032671418
11771,TiBiRh,-0.036174252
11772,ZrBiRh,-0.00479628
11773,BiS2,-0.706317995
11774,ZnBi3,0.177540437
11775,TmBi3,-0.270797931
11776,Sr3Bi,-0.409410549
11777,TmBiPd2,-0.747334391
11778,UBiTe,-0.399034832
11779,SmBi3,-0.409617733
11780,SiBi3,0.424133628
11781,NaBi3,-0.107475122
11782,ScBiPd2,-0.680117573
11783,ScBi3,-0.163689008
11784,GeBi3,0.246191046
11785,PmBiRh2,-0.476401349
11786,PmBi3,-0.427086392
11787,Re3Bi,0.987590779
11788,ReBiO3,-1.222694064
11789,Rb2Bi2O5,-1.578766796
11790,RbBiO3,-1.464860299
11791,Ho6Bi2Rh,-0.620201731
11792,Nd(NiBi)2,-0.326793154
11793,Hf3Bi,-0.012774189
11794,Ni3Bi,0.16114447
11795,PrBiPd2,-0.702061738
11796,LuBi3,-0.2199402
11797,CaBiPd2,-0.61640698
11798,Bi2Rh3S2,-0.57532285
11799,Mg2Bi,-0.079892005
11800,SmBeO3,-2.904992317
11801,SnBi3,0.126311125
11802,Tb2Be2O5,-3.30799948
11803,Sm(NiBi)2,-0.299440467
11804,Tl3BiCl6,-1.38160055
11805,UBiSb,-0.116094363
11806,Hg3Bi,0.134977025
11807,HgBi3,0.13191474
11808,LaBeO3,-2.939867988
11809,LiBeO3,-1.361194529
11810,Ga3Bi,0.087751839
11811,CsBiO3,-1.388319933
11812,BiH3,0.662656611
11813,Co3Bi,0.426383659
11814,LiBeP,-0.587547576
11815,Ho(BiO3)2,-2.033013551
11816,CuBiO4,-0.917579479
11817,Ti2Be3(SiO4)3,-3.068330407
11818,Be3Si3(CuO6)2,-2.431023093
11819,Be3Si3(BiO6)2,-2.756816085
11820,Be3Si3(SbO6)2,-2.707632815
11821,Bi3P3O13,-2.182704417
11822,Be3Si3(SnO6)2,-2.736877232
11823,Bi4O9,-1.146128419
11824,BiP2O7,-2.23501627
11825,MgBi4O9,-1.668545739
11826,CaBi4O9,-1.77336066
11827,ZnBi4O9,-1.467807578
11828,Ti2Be3Zn(SiO4)3,-2.85531564
11829,MgTi2Be3(SiO4)3,-2.967162092
11830,Be3Si3(MoO6)2,-2.790896748
11831,Be3Fe2(SiO4)3,-2.756052748
11832,Be3Cr2(SiO4)3,-2.854770175
11833,Be3V2(SiO4)3,-2.916135601
11834,Be3Si3(WO6)2,-2.675559731
11835,Be3Si3(NiO6)2,-2.469070058
11836,Ca(BiO2)4,-1.739521063
11837,Zn(BiO2)4,-1.457790063
11838,Mg(BiO2)4,-1.654676389
11839,CaTi2Be3(SiO4)3,-3.064216586
11840,Ti(BiO3)2,-1.852687226
11841,VBiO5,-1.504605883
11842,BiN,1.150968284
11843,Y5Be6Fe3(SiO5)6,-3.216436599
11844,Bi6P2O15,-1.933065247
11845,MgBiF6,-2.93545176
11846,CaBiF6,-3.090741637
11847,Bi2O5,-0.936089399
11848,Mn2Be3(SiO4)3,-2.770058538
11849,YBiO3,-1.720503617
11850,Mg2Bi3O8,-1.767933517
11851,CaBiF5,-3.353403041
11852,Y2Bi2O7,-2.537419318
11853,Zn3Bi2O7,-1.552086637
11854,Zn2Bi3O8,-1.449835501
11855,Co(BiO3)2,-1.087712861
11856,Y4Be6Fe3(SiO5)6,-3.028112868
11857,Ta2Bi2O9,-2.209025751
11858,Bi3(PO5)2,-2.170437002
11859,MgBiO3,-1.996569331
11860,ZnBiF6,-2.49993584
11861,ZnBiF5,-2.641563203
11862,MgBiF5,-3.149902312
11863,Ca2Bi3O8,-2.046941754
11864,BiF4,-2.338961286
11865,Mg3Bi2O7,-2.171951606
11866,CaBe3Co2(SiO4)3,-2.897566362
11867,Mg(BiO3)2,-1.605145315
11868,Ca(BiO2)2,-2.134535579
11869,Ca(BiO3)2,-1.71775442
11870,Zn(BiO3)2,-1.292286106
11871,Bi5(TeO6)3,-1.427994181
11872,Ca3Bi2O7,-2.440480117
11873,Mg2Bi2O5,-1.846823938
11874,Ca2Bi2O5,-2.244174429
11875,CaBiO3,-2.26283139
11876,Zn2Bi2O5,-1.490916517
11877,ZnBiO3,-1.526076006
11878,SiBiO4,-2.112763428
11879,CaBi2O5,-1.799426756
11880,Mg(BiO2)2,-1.923405872
11881,ZnBi2O5,-1.345054147
11882,Zn(BiO2)2,-1.50535648
11883,MgBi2O5,-1.742507676
11884,Si2BiO6,-2.585280514
11885,YBi3F15,-2.736313088
11886,Bi(WO4)2,-1.906178892
11887,BiTeO5,-1.100041929
11888,TaBiO5,-1.840176315
11889,BiSbO5,-1.185830079
11890,CoBi2O7,-1.015440223
11891,CrBiO5,-1.40648302
11892,BiMoO5,-1.590926039
11893,BiWO5,-1.553240166
11894,Ge2BiO6,-1.842414649
11895,Si4BiO10,-2.773941328
11896,BiPO5,-1.919256333
11897,MgBi3O7,-1.638861712
11898,ZnBi3O7,-1.381399185
11899,CaBi3O7,-1.779084204
11900,Bi3O7,-1.141366489
11901,Pr(BiO3)2,-1.980335016
11902,BiPO4,-2.294897801
11903,Bi2P2O9,-2.090707881
11904,Sr3BiP,-0.155360944
11905,CrCo2Bi,0.399089207
11906,YbBiPt,-0.835971783
11907,LaBiPt,-1.056587453
11908,HoNiBi,-0.671308977
11909,CeBiPt,-0.930991877
11910,KMnBi,-0.006330042
11911,Li3CeBi2,-0.643638345
11912,Li3LaBi2,-0.737308181
11913,Li3PrBi2,-0.695802982
11914,Li3SmBi2,-0.68127687
11915,Li3YBi2,-0.667982498
11916,RbMnBi,0.017678618
11917,KMgBi,-0.481429672
11918,ThBiTe,-0.903346403
11919,Sr4Bi2O,-1.580736537
11920,CeBi2SeO4,-2.25461577
11921,BiClO,-1.700196875
11922,CaCuBi,-0.470682132
11923,YbCuBi,-0.538460737
11924,GaBiO3,-1.7553033
11925,CuBiS2,-0.613188556
11926,NaBiO2,-1.737187154
11927,BiIO,-1.221641249
11928,Ce2BiO2,-2.874602489
11929,NaBiO3,-1.602838166
11930,BiBrO,-1.391198465
11931,BiPbClO2,-1.690295291
11932,SrTa2Bi2O9,-2.862453414
11933,Sr2NdBiO6,-2.803655961
11934,Sr2LuBiO6,-2.909630356
11935,Nb2Bi2PbO9,-2.348847399
11936,CuBiSeO,-0.843574885
11937,Si3(BiO3)4,-2.482164993
11938,Ti3(BiO3)4,-2.504985
11939,Ge(Bi3O5)4,-1.714522248
11940,Sr2Bi2O5,-2.371169682
11941,NbBiO4,-2.529780499
11942,Bi2Ru2O7,-1.569765549
11943,GeBi2O5,-1.882539394
11944,Si(Bi3O5)4,-1.810734493
11945,Ti(Bi3O5)4,-1.828961987
11946,Ga4Bi2O9,-2.088781671
11947,Bi4Br2O5,-1.531942982
11948,Ge3(BiO3)4,-1.948078661
11949,KBiP2S7,-0.908660731
11950,KLi6BiO6,-1.999087096
11951,Cs4BiSbCl12,-1.80579093
11952,TaBi4ClO8,-2.142563994
11953,SrNb2Bi2O9,-2.698499092
11954,Si2Bi14IrI12,-0.133852573
11955,NaBi(PO3)4,-2.558622469
11956,NbBi4ClO8,-2.061608632
11957,KBiS(ClO2)2,-2.015163925
11958,BiP4HO12,-2.438420418
11959,CrBiO3,-1.980847539
11960,FeBiO3,-1.752454647
11961,MnNi(BiO3)2,-1.568912658
11962,MnBiO3,-1.821362242
11963,VBiO4,-2.151690271
11964,Mg2VBiO6,-2.545881139
11965,Bi(PdO2)2,-1.006699327
11966,Li15Bi4(PdO10)2,-1.81195964
11967,CoBiPO5,-2.159304958
11968,Bi2MoO6,-1.911907944
11969,Li2Bi(PO4)2,-2.437539492
11970,LiBi(PO3)4,-2.545390503
11971,Bi(PO3)4,-2.397407156
11972,Li3Bi2(PO4)3,-2.527540095
11973,Bi2(PO4)3,-2.181209094
11974,LiBiP2O7,-2.55402865
11975,LiBi3(PO5)2,-2.323306332
11976,Li3Bi2P5O18,-2.452458629
11977,LiBi2(PO4)3,-2.309194133
11978,Li6Bi3P8O29,-2.470785793
11979,Li5Bi2P5O18,-2.598391651
11980,Li3Bi5(PO4)6,-2.461765292
11981,Cu4(BiS2)5,-0.631138465
11982,Bi(PO3)3,-2.507491068
11983,In4Bi2S9,-0.880930336
11984,Na3BiO4,-1.743498453
11985,Na3BiO3,-1.736078244
11986,SiBi2O5,-2.298635693
11987,LiBiO2,-1.854700531
11988,Zn(Bi3O5)4,-1.5825715
11989,Li3BiO3,-1.971678356
11990,Bi2P4O13,-2.492039065
11991,Ga(Bi3O5)4,-1.665646094
11992,Ti4Bi2O11,-2.981043999
11993,Sr(BiO2)2,-2.133391366
11994,LiBiO3,-1.651719388
11995,SrBiO3,-2.279355836
11996,SrMnBi2,-0.26486388
11997,Ge3Bi2O9,-1.989742845
11998,Li5BiO5,-1.960912324
11999,Bi3BrO4,-1.565801643
12000,K3BiO3,-1.700918998
12001,K4Bi2O5,-1.712366315
12002,Bi3ClO4,-1.676344095
12003,Ta2Bi4O11,-2.42716041
12004,KBiO3,-1.5955904
12005,Bi2(SeO3)3,-1.469366656
12006,Bi2SeO5,-1.596670876
12007,BiKrF7,-1.573384947
12008,RbBiS2,-1.108473162
12009,K3BiO4,-1.665503801
12010,Bi4I2O5,-1.441595208
12011,Bi2CO5,-1.685416936
12012,Ca9Cd4Bi9,-0.663456032
12013,SrCuBi,-0.526591663
12014,ErBiPt,-1.032072773
12015,SrLiBi,-0.833420969
12016,YbBiPd,-0.77928596
12017,TaBiO4,-2.717196683
12018,KBiO2,-1.744141984
12019,Bi(IO3)3,-1.022168722
12020,Er5BiPt2,-0.933544192
12021,Bi2(MoO4)3,-1.972192351
12022,Sr5(BiO4)3,-2.398239009
12023,NbBi3O7,-2.007849811
12024,TaBi3O7,-2.093071349
12025,Li7BiO6,-1.993294903
12026,NaTi2BiO6,-2.850553757
12027,Bi3Ru3O11,-1.561912589
12028,In5(BiS4)3,-0.866213657
12029,Cu(BiO2)2,-1.463144481
12030,Cu3BiSe2ClO8,-1.217061595
12031,Bi2W2O9,-2.035284301
12032,Bi6P4PbO20,-2.276837162
12033,VBiPbO5,-2.042174393
12034,KBi(WO4)2,-2.159821546
12035,Fe4Bi2O9,-1.784072371
12036,RbBi3S5,-0.779212389
12037,Mn2BiO5,-1.897154954
12038,Bi5IO7,-1.565644145
12039,Cu4Bi7S12,-0.612750331
12040,CsBiS2,-1.080195174
12041,Mn(Bi3O5)4,-1.631648768
12042,Cr2(Bi2O5)3,-1.742187964
12043,CuBi3PbS6,-0.717684061
12044,CuBiTeO,-0.745170492
12045,NdBi2ClO4,-2.41875576
12046,Pr2BiO2,-2.840479625
12047,PrBi2IO4,-2.231087757
12048,LuBi2BrO4,-2.376481069
12049,TmBi2ClO4,-2.493654159
12050,SmBi2ClO4,-2.443356176
12051,DyBi2IO4,-2.296093618
12052,TmBi2BrO4,-2.37764138
12053,ErBi2BrO4,-2.372087056
12054,HoBi2BrO4,-2.369603842
12055,LaBi2IO4,-2.270939285
12056,TbBi2ClO4,-2.476058533
12057,SrBiClO2,-2.425905896
12058,HoBi2ClO4,-2.484211859
12059,NdBi2IO4,-2.24453944
12060,TbBi2BrO4,-2.362165254
12061,GdBi2ClO4,-2.442743854
12062,ErBi2ClO4,-2.487194341
12063,SmBi2BrO4,-2.332312384
12064,TiZn(BiO3)2,-2.198667501
12065,CdBiClO2,-1.614402482
12066,EuBi2ClO4,-2.198966102
12067,LuBi2IO4,-2.301699207
12068,LuBi2ClO4,-2.493323746
12069,HoBi2IO4,-2.297735654
12070,ErBi2IO4,-2.299915664
12071,YBi2IO4,-2.281561339
12072,Ca4Bi2O,-1.614368633
12073,PrBi2BrO4,-2.294282409
12074,DyBi2ClO4,-2.480970381
12075,YbBi2BrO4,-1.997173991
12076,Bi2SeO2,-1.272042752
12077,SrBiBrO2,-2.245097115
12078,SmBi2IO4,-2.265480398
12079,SrBiIO2,-2.135316073
12080,YBi2ClO4,-2.46586326
12081,TmBi2IO4,-2.304268341
12082,TbBi2IO4,-2.292650748
12083,DyBi2BrO4,-2.366836828
12084,CaBiClO2,-2.441402301
12085,PrBi2ClO4,-2.403051329
12086,NdBi2BrO4,-2.30877916
12087,YBi2BrO4,-2.352078547
12088,CsGeBiS4,-1.037174836
12089,TaBi4BrO8,-2.077730447
12090,K3Bi(PS4)2,-1.121248118
12091,CuBiSCl2,-0.941928916
12092,Bi6Cl3O7F,-1.802894078
12093,MnCo(BiO3)2,-1.657116425
12094,K9Bi(PS4)4,-1.239398664
12095,Ta2Bi4Br7O2,-1.159521345
12096,CdGe(BiO3)2,-1.801770074
12097,Zn2BiPO6,-2.145349355
12098,KRb2BiF6,-2.923897606
12099,Rb3Cu2(BiS2)5,-0.926396948
12100,Mg2BiPO6,-2.734202849
12101,KBi6BrO9,-1.675070515
12102,CaNb2Bi2O9,-2.057596752
12103,NaSr3BiO6,-2.519579035
12104,Sr2Cu(BiO3)2,-2.055504094
12105,In2GaBiS6,-0.936730932
12106,NaBi2Sb3O11,-1.923823257
12107,CuBi2(SeO3)4,-1.374565943
12108,BiSeClO3,-1.469432228
12109,CaBi2(CO4)2,-1.965189374
12110,K3Cu2(BiS2)5,-0.931432542
12111,Cs2MnBi2S5,-1.091138043
12112,TlBi(PS3)2,-0.742725652
12113,CaBi6(PO5)4,-2.419087206
12114,TlBiP2S7,-0.749579672
12115,CaBiCO4F,-2.536787443
12116,CaTa2Bi2O9,-2.868877911
12117,BiPPbO5,-2.244738027
12118,KBi6ClO9,-1.721940024
12119,Bi4Te2Br2O9,-1.378372105
12120,KBi(PS3)2,-0.915577019
12121,Sm2Ti3(BiO6)2,-3.138722067
12122,BiS4N3Cl4,-0.651104969
12123,Na3Ca2BiO6,-2.300483784
12124,Rb2Bi(ClO4)5,-0.927297683
12125,Cs2TlBiF6,-2.744749757
12126,Li3BiO4,-1.896014881
12127,CoBiO3,-1.483845822
12128,MnBiS2Br,-0.810144567
12129,V3(Bi3O8)2,-2.016366763
12130,KCu(BiS2)2,-0.878217678
12131,MnBiS2Cl,-1.003845679
12132,K9U6BiO24,-3.104373077
12133,Bi5BrO7,-1.59961799
12134,CsSiBiS4,-1.203418448
12135,KBi6IO9,-1.648150759
12136,TbMn2BiO6,-1.70881478
12137,Sr3Bi(ClO)3,-2.745654468
12138,Si3Bi2O9,-2.728154139
12139,CdBiS2Cl,-1.015914535
12140,CsCu(BiS2)2,-0.876127246
12141,CrFe(BiO3)2,-1.881433373
12142,KBi(PO3)4,-2.569824643
12143,LiNb3(Bi2O7)2,-2.446432196
12144,Tl2BiP2S7,-0.771897684
12145,ErGeBiO5,-2.675309848
12146,RbGeBiS4,-1.020476089
12147,BiTeIO3,-1.357901738
12148,Ti2Bi2O7,-2.653337587
12149,K9Bi5O13,-1.704660815
12150,InBi2S4Cl,-0.930525532
12151,Cu4Bi4S9,-0.62435905
12152,BiP3Pb4O13,-2.289475618
12153,Cs2CdBi2S5,-1.092509522
12154,Cs2RbBiF6,-2.941299869
12155,NbBi(TeO4)2,-2.034299423
12156,LiBi(PdO2)2,-1.396701527
12157,Rb2NaBiF6,-2.94251532
12158,RbSiBiS4,-1.183679036
12159,Bi24Cl10O31,-1.691110547
12160,TiFe(BiO3)2,-2.234634954
12161,K3Bi2(PO4)3,-2.525634491
12162,Li8Bi2PdO10,-1.856259929
12163,Na5Bi(P2O7)2,-2.584001909
12164,Cs2NaBiF6,-2.960873182
12165,SrBi6(PO5)4,-2.421587921
12166,CdBiS2Br,-0.83299055
12167,Na3Bi(PO4)2,-2.524985885
12168,VBi2O5,-1.906845432
12169,ZnBi6P2(O7F)2,-2.117272277
12170,NbBi4BrO8,-1.997532996
12171,YbBi2ClO4,-2.102711067
12172,Sr2Mn3(BiO)2,-1.197945089
12173,GdBi2BrO4,-2.330869399
12174,CsNb2BiO7,-2.685507131
12175,CuBi(WO4)2,-1.87116433
12176,CaVBiO5,-2.569997006
12177,VCu2BiO6,-1.609065482
12178,Mn4Bi3NO15,-1.675048955
12179,FeBi3(MoO6)2,-1.927775938
12180,K3Bi5(PO4)6,-2.479327056
12181,SrV4(Bi3O10)2,-2.201815498
12182,VCdBiO5,-1.996484849
12183,Mn2BiPO6,-2.305048176
12184,MgVBiO5,-2.424447376
12185,Li8Bi2(MoO4)7,-2.195694112
12186,MnVBiO5,-2.163112528
12187,NaV2Bi3O10,-2.096362037
12188,K2BiPWO8,-2.370830538
12189,Bi10(MoO8)3,-1.857290621
12190,Bi2Te2WO10,-1.783688556
12191,RbCr2BiO8,-1.844530166
12192,K2BiMoPO8,-2.371816148
12193,NiBiPO5,-2.058985357
12194,Ca2VBiO6,-2.763566994
12195,TlBi(PSe3)2,-0.244608593
12196,Si2Bi14RhI12,-0.138685363
12197,K3Na2SnBi3,-0.374230739
12198,KBi(PSe3)2,-0.401050935
12199,Hg6BiSb4Br7,-0.384854397
12200,MnBiSe2I,-0.404377228
12201,Sr14MnBi11,-0.854256455
12202,CuBi(PSe3)2,-0.159683274
12203,Bi(W2Cl5)3,-1.174055476
12204,MnBiPO5,-2.368186318
12205,CdBiSe2Br,-0.561103936
12206,CdBiSe2I,-0.468516552
12207,InBi2Se4Br,-0.487758763
12208,CsK2BiCl6,-1.988742778
12209,YbGeBiO5,-2.286855061
12210,Cu3BiTe2ClO8,-1.281077537
12211,Cs2KBiF6,-2.965181914
12212,Bi2Mo2O9,-1.954631439
12213,Cs7(In2Bi3)2,-0.363190536
12214,BiP(PbO2)4,-1.922206666
12215,Ta3Bi7O18,-2.355566751
12216,Ce3Bi4Pd3,-0.794310902
12217,Pr21Fe8Bi7C12,-0.505301185
12218,Li9Bi3P8O29,-2.587311465
12219,RbBi(MoO4)2,-2.090382703
12220,FeBiSbS4,-0.575960558
12221,CeBiPd,-0.814502777
12222,Ce2Bi5Rh3,-0.459581443
12223,Cu3BiS3,-0.490615131
12224,CeBiS2O,-2.099442072
12225,CoBi2SO7,-1.831575439
12226,BiOs2(CO)6,-0.884433282
12227,TlCr4BiO14,-1.632332598
12228,MnFeBiO5,-1.76717747
12229,Co3Bi(CO)9,-0.78116409
12230,Cu2BiPO6,-1.771938432
12231,Sr15Fe10(Bi5O23)2,-2.3140927
12232,RbK2BiSe3,-0.966517757
12233,K3V3(BiO6)2,-2.289906681
12234,CuBiPbS3,-0.691026463
12235,Bi2Te2W3O16,-1.923117337
12236,YbBi2IO4,-1.941397104
12237,GdBi2IO4,-2.262044673
12238,Cu3BiSe2BrO8,-1.161557912
12239,Bi2(PbS2)3,-0.816696184
12240,Li2Ti3(BiO3)4,-2.292064813
12241,VBi(PbO3)2,-1.90333592
12242,Bi2PbS4,-0.782249567
12243,CuBi5PbS9,-0.725989153
12244,Bi32P10Pb3O76,-2.042974143
12245,RbCr4BiO14,-1.738158756
12246,CrBi12Mo4PbO34,-1.848033295
12247,Cs5Bi(MoO4)4,-2.20585912
12248,ZnBi6P2O15,-2.072713398
12249,Nb3(BiO3)5,-2.327386235
12250,V2Bi7O15,-1.881242332
12251,La21Fe8Bi7C12,-0.530062999
12252,BiIr3(CO)9,-0.89477816
12253,Ce21Fe8Bi7C12,-0.442812396
12254,RbBiC4(SN)4,-0.251006163
12255,Ga2Fe2Bi2O9,-1.739562478
12256,KBiN(ClO)3,-1.4482295
12257,RbLiBi2(MoO4)4,-2.080504598
12258,In2Bi4Pb4S13,-0.84243528
12259,In3Bi7(Pb2S9)2,-0.781394918
12260,Mn3Bi(CO)15,-0.765355
12261,Bi4Cl2O5,-1.673455287
12262,Cu2Bi4Pb2S9,-0.705246211
12263,Bi2Ru3(CO)9,-0.876778737
12264,Sr10Cu5Bi10O29,-2.04873726
12265,BiRu2(CO)6,-0.89296068
12266,Cs3Cu2(BiS2)5,-0.925976161
12267,Cu3BiSe2IO8,-1.130988053
12268,EuBi2BrO4,-2.087254981
12269,Cu2Bi8Pb6S19,-0.757555916
12270,EuBi2IO4,-1.42272736
12271,Cu4Bi5PbS11,-0.632335813
12272,LiBi2P5O18,-2.22877235
12273,Bi5(PO4)6,-2.215801761
12274,Rb3Bi7Pb3(IO)10,-1.024762847
12275,Ca4Bi6O13,-2.123800941
12276,Ge6Bi7O22,-1.824698673
12277,Sr6Bi2O11,-2.479136901
12278,Yb3(Bi7Te12)2,-0.318983423
12279,Sr4Bi14O25,-1.116163601
12280,Mg4(BiO2)9,-1.834347904
12281,Cu6BiS6,-0.459333442
12282,Ca(Bi2O3)2,-1.738368439
12283,YbBiO3,-2.339939115
12284,NbBi7O13,-1.780318911
12285,Bi8(P2O9)3,-1.834068965
12286,Yb(BiTe2)2,-0.553971912
12287,Ca2Bi10O17,-1.835191179
12288,Ti10Bi(Pb3O10)3,-2.720502477
12289,Bi24Ru3Br20,-0.431683674
12290,Cu3Bi7(PbS5)3,-0.711553774
12291,Bi9Rh2Br3,-0.307649418
12292,Bi2Pb2S5,-0.78617027
12293,Bi9Ir2I3,-0.164763801
12294,Bi17P5Pb5O43,-1.960604763
12295,Cu2Bi8Pb2S15,-0.722223916
12296,Li3Bi(PO4)2,-2.574658635
12297,Li3Bi3P8O29,-2.296241049
12298,Bi16Ru16O55,-1.547293683
12299,Bi15PO25,-1.770377863
12300,Nb3(Bi5Cl9)2,-1.115312109
12301,Zn(Bi19O30)2,-1.607864341
12302,Bi15Ru16O55,-1.553256341
12303,Si(Bi3O5)5,-1.742654254
12304,Zn(Bi25O38)2,-1.624569045
12305,Co5(Bi2O5)4,-1.381481538
12306,Co2Bi11O20,-1.54416506
12307,V2Bi4O11,-1.942987892
12308,Bi14MoO24,-1.724069101
12309,Co8(BiO4)5,-1.244610421
12310,V2Bi8O17,-1.708996744
12311,Co(Bi3O5)4,-1.607896601
12312,Na7Bi3P12(Pb5O24)2,-2.422156185
12313,Ti5ZnBi2(Pb2O9)2,-2.570843361
12314,CaBi2(CO)2,-0.29810968
12315,K6BiH3(Cl2F)4,-2.138292371
12316,KBiH10C4O13,-1.529591675
12317,K2BiH5(CO2)5,-1.471359263
12318,Cr(Bi7O12)2,-1.69142263
12319,FeBi25O39,-1.642664432
12320,Bi28Mo2O47,-1.682189754
12321,Sr6Co4Bi2O15,-2.223995721
12322,CrBi8O15,-1.701411775
12323,Bi2W3(CO)15,-0.699092426
12324,Cr2Bi28O47,-1.669603534
12325,Co(Bi5O8)5,-1.607695077
12326,BiH3Ru3(CO)9,-0.85268837
12327,Ca8Bi12O25,-2.044950664
12328,Cr8Bi4O29,-1.65441164
12329,LiSiBiO4,-2.520223299
12330,TiBi2O5,-2.389185883
12331,TbBi5O9,-1.98685568
12332,LaBi5O9,-1.984491991
12333,La2Bi4O9,-2.39833668
12334,Li2BiO3,-1.864455164
12335,SrBi5O9,-1.796644404
12336,La(BiO2)2,-2.287172438
12337,La2(BiO2)7,-2.047513322
12338,BiRu2O7,-1.37036214
12339,SiBi3O7,-2.004178833
12340,La4Bi2O9,-3.093812477
12341,Li(BiO2)3,-1.5922041
12342,Y(BiO2)3,-2.198053511
12343,LiBi3(ClO2)2,-1.815749595
12344,Li2CuBiO4,-1.559498298
12345,HoBiO3,-2.806152357
12346,Li8BiO6,-1.979125049
12347,ErBiO3,-2.814960924
12348,Lu(BiO2)3,-2.242769278
12349,Li2Ti3BiO8,-2.876544474
12350,Bi2SeO6,-1.354569327
12351,Er(BiO2)3,-2.222159385
12352,LaBiO3,-2.747597966
12353,Li2BiO2,-1.755630287
12354,CuBi(PO4)2,-2.110424753
12355,Bi2PO6,-2.01880003
12356,PrBiO4,-2.425014605
12357,NdBiO4,-2.427225233
12358,Li4Si4Bi2O13,-2.669565136
12359,Li4Bi2O5,-1.898296341
12360,NaBi5O8,-1.650779023
12361,LiSi3BiO8,-2.831523784
12362,Li3Si2Bi3O10,-2.363702296
12363,K7(Bi3O8)3,-1.533277711
12364,LiSi6Bi9O26,-2.392097892
12365,Li3Si2BiO7,-2.650406866
12366,Sm3Bi5O12,-2.463560568
12367,Tb(BiO2)3,-2.209411562
12368,Cu10Bi25O48,-1.467632646
12369,LiSiBi3O7,-2.144293045
12370,LiSi2(BiO3)3,-2.375004398
12371,Bi12PO20,-1.768822263
12372,Bi11PO20,-1.701372183
12373,Li3SiBiO5,-2.435178954
12374,La10Bi8O27,-2.913278409
12375,Sr7Bi23O40,-1.913553579
12376,LiBi2P3O11,-2.439514835
12377,LiBi4P7O24,-2.450389933
12378,Li3Bi3(PO4)4,-2.439810807
12379,Yb(Bi3O5)4,-1.697356268
12380,LiBi3(P3O10)2,-2.45038246
12381,Li7Bi2P7O24,-2.59142701
12382,LiBi2(SO4)3,-1.960256248
12383,LiBi2PO6,-2.21712418
12384,LiSi2BiO6,-2.751512259
12385,Na3Bi(P2O7)2,-2.401541297
12386,Li2Bi3P9O28,-2.481767594
12387,Li2Bi(PO3)5,-2.536654305
12388,Li2Bi2P2O9,-2.378462663
12389,Li2BiP3O10,-2.541099379
12390,Na2BiO3,-1.746091934
12391,Na5BiO5,-1.691089554
12392,Mn(Bi5O8)5,-1.63565663
12393,Fe(Bi5O8)5,-1.62904711
12394,Bi12Cl5O16,-1.647936834
12395,Bi24Br10O31,-1.506056721
12396,V2Bi24O41,-1.744064697
12397,Si6Bi9O26,-2.342481935
12398,V(Bi5O8)5,-1.694290092
12399,Na5Bi2P(CO4)4,-2.022983707
12400,V5BiO10,-2.370353171
12401,Na2BiPCO7,-2.282184399
12402,LiBi3(BrO2)2,-1.631711938
12403,Na4Bi2C4SO16,-1.955971292
12404,Ti3Bi2(PO4)6,-2.760489899
12405,SmBiO4,-2.451724189
12406,Na3SiBiCO7,-2.303869738
12407,Na2Bi2C4SO16,-1.784130177
12408,Li5BiO4,-1.961493403
12409,Li6Bi2O7,-1.922289954
12410,LiBi3O5,-1.666811796
12411,Li(Bi3O5)4,-1.562055506
12412,Li4Bi3O8,-1.755024262
12413,Li6Bi5O14,-1.671576316
12414,Li(BiO2)2,-1.638270536
12415,Ho2Bi2O7,-2.554744629
12416,Ho(Bi3O5)4,-1.767361661
12417,Y(Bi3O5)4,-1.762938112
12418,Tb2Bi2O7,-2.557211117
12419,Li4Ni5BiO12,-1.238460714
12420,Li2Ni3BiO8,-1.239757491
12421,Li4Cr5BiO12,-2.151505542
12422,Li4Ni3BiO8,-1.515890563
12423,Li3BiH8O7,-1.597564413
12424,CoBiO4,-1.258515683
12425,Mn3BiO8,-1.648005451
12426,Li2Fe3BiO8,-1.851071641
12427,La2Bi2O7,-2.611552845
12428,LaBiO4,-2.340373441
12429,Li2Co3BiO8,-1.600747574
12430,Li2Cr3BiO8,-2.140118252
12431,LiBiCSO7,-1.982787615
12432,Na2SiBiCO7,-2.206237674
12433,Li2V3BiO8,-2.301707887