id,Composition,FormationEnergy
19428,Ce3Dy,0.103630635
19429,Ce2US5,-2.23176002
19430,FeCl,0.093160198
19431,CeZn,-0.19593913
19432,Na2Cl,-1.300779308
19433,Li2CeP2,-1.001135013
19434,Ce4GdO9,-3.916962954
19435,NaCeSe2,-1.619160293
19436,KCoCl3,-1.40234038
19437,Sn5(S2Cl)2,-0.85386188
19438,TiSCl,-1.916553876
19439,Eu2H3Cl,-1.193862755
19440,LaTeCl,-2.166818614
19441,NdTeCl,-2.019717756
19442,PrTeCl,-2.035351603
19443,IClO3,-0.090209993
19444,KCuCl3,-1.435422296
19445,ZrHCl,-1.271361547
19446,Rb2PdCl4,-1.725581266
19447,Rb2MgCl4,-2.272375501
19448,Cs2MnCl4,-1.972003396
19449,Mn(NCl2)2,0.602976447
19450,HoClO2,-2.313907499
19451,EuClO2,-1.83435314
19452,NbCl2O,-2.228491269
19453,RuCl3,-0.983235037
19454,MoCl3,-1.26932778
19455,HgCl2,-0.993248192
19456,ClO3,-0.501905301
19457,ZrCl3,-2.181014861
19458,HgCl,-0.838747309
19459,CuCl,-0.669330747
19460,K2PtCl4,-1.678106105
19461,TeRhCl,-0.727427606
19462,K2ReCl6,-1.673102612
19463,CsNiCl3,-1.545998459
19464,K2PdCl4,-1.717069025
19465,SrClF,-3.597515305
19466,Li2ZnCl4,-1.857960558
19467,PbClF,-2.151787823
19468,NaClO4,-1.121606266
19469,Rb2TeCl6,-1.67138723
19470,Rb2(NbCl3)3,-1.870143077
19471,CsVCl3,-1.894617557
19472,Rb2MnCl4,-1.947595898
19473,Li2CoCl4,-1.594807511
19474,CsGeCl3,-1.708085723
19475,CsICl2,-1.415015209
19476,TiClO,-2.730152807
19477,Hg3(ClO)2,-0.80300434
19478,CsMgCl3,-2.319743491
19479,RbClO3,-1.276916565
19480,U(ClO)2,-2.886844224
19481,UNCl,-1.91284405
19482,KClO3,-1.285155295
19483,LaClO,-3.610844647
19484,CsCuCl3,-1.478753716
19485,Sr2NCl,-1.668724914
19486,SrZnCl4,-2.19852509
19487,CsPbCl3,-1.879189454
19488,KMnCl3,-1.79655387
19489,GdClO,-3.473048168
19490,PbICl,-1.06766153
19491,RbCuCl3,-1.449751435
19492,NdClO,-3.47419237
19493,Rb2SnCl6,-1.878048748
19494,CsCu2Cl3,-1.253869061
19495,K2PdCl6,-1.539535196
19496,Rb2CoCl4,-1.742258382
19497,Cs2UCl6,-2.331113332
19498,SiCl2O,-2.293984612
19499,ZrCl2,-2.039794916
19500,WCl6,-1.361579623
19501,ClO2,-0.562341675
19502,SrCl2,-2.883579222
19503,MgCl2,-2.254578937
19504,PCl5,-1.067306075
19505,FeCl2,-1.109154056
19506,PCl3,-1.144469669
19507,GdCl3,-2.680304306
19508,WCl3,-1.22440914
19509,NbCl5,-1.72345901
19510,ScCl3,-2.563925349
19511,RbVCl3,-1.858368228
19512,Sr4Cl6O,-2.962126716
19513,NaClO3,-1.214489723
19514,Hg3Cl4O,-0.911642444
19515,CsMnCl3,-1.854909127
19516,Rb2PtCl6,-1.623995528
19517,Hg5(ClO2)2,-0.758518459
19518,Li5CrCl8,-1.954266578
19519,CsLiCl2,-2.190690315
19520,PNCl2,-0.960408334
19521,Hg2ClO,-0.730630989
19522,MoNCl3,-1.084220907
19523,MoPCl9,-1.200908787
19524,Cs2PtCl6,-1.656288143
19525,SbCl4F,-1.459976344
19526,Sc4NCl6,-2.315931128
19527,Hg3(SCl)2,-0.747281066
19528,Sb4Cl2O5,-1.699966556
19529,Yb2LiCl5,-2.669363705
19530,Cs2PbCl6,-1.741282786
19531,Cs2TeCl6,-1.716472704
19532,K2RuCl6,-1.592639047
19533,Rb2PbCl6,-1.697203333
19534,Rb2CrCl4,-1.478304428
19535,RbNiCl3,-1.514793821
19536,K2SnCl6,-1.845808352
19537,Na3InCl6,-1.899930099
19538,Rb2CuCl4,-1.68524389
19539,K2PtCl6,-1.599113954
19540,K2CoCl4,-1.728628107
19541,Cu2Cl2O,-0.899905099
19542,KClO4,-1.201071546
19543,K2OsCl6,-1.548559931
19544,SbI3Cl8,-0.811278436
19545,KFeCl3,-1.556753048
19546,KSn2Cl5,-1.62718646
19547,Rb3Mn2Cl7,-1.890888865
19548,HCl,0.397603384
19549,Sr7(H6Cl)2,-0.977356802
19550,SrHCl,-1.806086746
19551,LuHCl,-1.624995451
19552,ErHCl,-1.654666627
19553,ScHCl,-1.609449581
19554,H5ClO2,-1.285384017
19555,ScH3NCl3,-1.625044842
19556,CrClO,-2.001880123
19557,MoCl3O,-1.461091343
19558,VClO,-2.175560595
19559,KCrClO3,-1.812347993
19560,Mn8Cl3O10,-1.939562401
19561,Na6MnCl8,-1.989440258
19562,Na2Mn3Cl8,-1.678998015
19563,WCl5,-1.319439356
19564,Cs3In2Cl9,-1.939690753
19565,NaMnCl3,-1.729585369
19566,TlCl2,-1.212745969
19567,K2MgCl4,-2.255744767
19568,RbMgCl3,-2.278010923
19569,K2SbCl5,-1.814597278
19570,PCl3O,-1.574723084
19571,Na2MnCl4,-1.833778734
19572,TlPb2Cl5,-1.505176177
19573,ReCl4O,-1.348546341
19574,K2MnCl6,-1.799910005
19575,SbClF8,-2.05447854
19576,Tl3CoCl5,-1.204286412
19577,Tl3FeCl5,-1.239151055
19578,Re4Cl8O9,-1.672391338
19579,SbN3Cl4,-0.574169568
19580,SbCl2F3,-2.050803512
19581,Cs3HgCl5,-1.878130698
19582,CsScCl3,-2.336128179
19583,Nb(SeCl)2,-1.153190945
19584,Nb(SCl)2,-1.510672027
19585,KNiCl3,-1.491868827
19586,RbGeCl3,-1.68164971
19587,SnClF,-2.008387079
19588,KTlCl4,-1.53569126
19589,TlHg5Cl11,-1.032851943
19590,CsSnCl3,-1.806909651
19591,Na2CoCl4,-1.622803905
19592,ZrCl,-1.576541329
19593,GaTeCl,-0.915888055
19594,YCl3,-2.727766066
19595,WSCl4,-1.304834895
19596,Cs2ThCl6,-2.569462423
19597,K3W2Cl9,-1.686561696
19598,NaFeCl4,-1.521944638
19599,VPCl9,-1.339787091
19600,CsFeCl4,-1.674759472
19601,Pb7(ClF6)2,-2.548494817
19602,K2Zr7Cl18,-2.097980068
19603,ErSCl,-2.603280099
19604,Te3Cl2,-0.527530803
19605,Cs3Sb2Cl9,-1.813135277
19606,K2TcCl6,-1.725057546
19607,K3MoCl6,-1.89949155
19608,ReCl5,-1.064741378
19609,U2Cl5O2,-2.696023969
19610,TiPCl9,-1.528997985
19611,Y2Cl3,-2.205087034
19612,H3ClO5,-0.94752934
19613,S3(NCl)2,-0.360239543
19614,InClO,-1.828623417
19615,RbCoCl3,-1.501923496
19616,ICl3,-0.644831619
19617,GaSbCl6,-1.442830042
19618,NClO6,-0.574916917
19619,Hg(Mo3Cl7)2,-1.282610448
19620,NbPCl10,-1.436383095
19621,TaPCl10,-1.501775564
19622,Rb3Cu2Cl7,-1.60267139
19623,Te6Cl2O11,-1.451389906
19624,NbCl3O,-2.109976028
19625,SmClO,-3.493655885
19626,PICl6,-0.959566369
19627,K2MoCl6,-1.78271653
19628,Rb2TiCl6,-2.201252531
19629,Cs2TiCl6,-2.239518692
19630,Rb2SeCl6,-1.524040638
19631,Cs2SeCl6,-1.560329754
19632,Rb2ZrCl6,-2.34612859
19633,Tl2SnCl6,-1.418325079
19634,Tl2TeCl6,-1.209904571
19635,Tl2PtCl6,-1.174336498
19636,K2TiCl6,-2.173074655
19637,TiNCl,-1.858425011
19638,Hg3(SeCl)2,-0.600044257
19639,Hg3(TeCl)2,-0.57351933
19640,TaCl4F,-2.210735393
19641,KMgCl3,-2.25461479
19642,MoS2Cl3,-1.189773357
19643,VNCl4,-1.138276873
19644,Cs2GeCl6,-1.804332533
19645,K4MnCl6,-2.025110748
19646,Ti2PCl13,-1.702852358
19647,Pb2ClO2,-1.432674029
19648,SNCl,-0.26867453
19649,PuClO,-3.05780528
19650,PrClO,-3.462629232
19651,YClO,-3.479237083
19652,SbS8Cl3,-0.880321864
19653,ThNCl,-2.437817795
19654,LiDy2Cl5,-2.141432889
19655,K3Mn2Cl7,-1.871851218
19656,RbDy2Cl7,-2.675766798
19657,SCl,-0.7955474
19658,USCl9,-1.533602256
19659,VCl3,-1.680875776
19660,LiGdCl4,-2.493573875
19661,SCl2,-0.710896799
19662,Rb2PdCl6,-1.563098922
19663,NaGdCl4,-2.510355056
19664,Pd(SCl3)2,-0.831630842
19665,Pd(SeCl3)2,-0.772013192
19666,Te2PdCl10,-1.026891662
19667,NaSbCl6,-1.420022204
19668,NaNbCl6,-1.823264648
19669,NaTaCl6,-1.917414124
19670,TaClF8,-2.62180199
19671,FeSeCl7,-0.990186595
19672,ZrFeCl6,-1.802443952
19673,IrS3Cl11,-0.860717511
19674,HfFeCl6,-1.845938078
19675,Tl6SCl4,-1.097573212
19676,RbLiCl2,-2.185141278
19677,Rb2PrCl5,-2.547797069
19678,Gd2NCl3,-2.467196005
19679,RbTiCl3,-2.016959692
19680,CsTiCl3,-2.049851697
19681,SnPCl9,-1.254020327
19682,Pd2Cl2O,-0.809986038
19683,LiGaCl4,-1.767887931
19684,Na3CrCl6,-1.890178551
19685,GeH3Cl,-0.386171588
19686,S5N5Cl,-0.064596524
19687,S(ClO)2,-1.392993496
19688,SCl2O,-1.230212741
19689,KTcCl3,-1.501469876
19690,RbClO4,-1.208156666
19691,KFeCl4,-1.623614928
19692,RuClF8,-1.699910255
19693,LiNb3Cl8,-1.742004668
19694,Sr(ClO3)2,-1.379296431
19695,Sc2NCl2,-2.296633758
19696,Ti(ClO4)4,-0.895798267
19697,K2UCl5,-2.229588485
19698,Cs2CrCl4,-1.919759506
19699,K2(NbCl3)3,-1.864553514
19700,Pb(ClO3)2,-0.865670339
19701,Na3ErCl6,-2.359798405
19702,Sm4Cl6O,-2.349750462
19703,Eu4Cl6O,-2.864043122
19704,W(S4Cl3)2,-0.989434626
19705,Y2NCl3,-2.471519959
19706,Si2NCl5,-1.624058862
19707,Nb3ICl6,-1.518599237
19708,Na3ClO,-1.716399762
19709,Re(TeCl6)2,-1.066652547
19710,Cs2IrCl6,-1.617862784
19711,Na2MgCl4,-2.16107607
19712,Ta(ICl)2,-1.144507662
19713,Na2CrCl4,-1.763017175
19714,Pt(SCl4)2,-0.860591832
19715,Pt(SCl3)2,-0.826601051
19716,Zr6CoCl15,-2.079420774
19717,SbSCl9,-0.998043288
19718,Se2NCl3,-0.331610717
19719,P4N3Cl11,-1.009496205
19720,Li6FeCl8,-1.892627187
19721,K3RhCl6,-1.796897831
19722,Os(SCl6)2,-0.823770572
19723,Te2OsCl12,-0.99241951
19724,Hg2P3Cl,-0.277306026
19725,Rb2UCl5,-2.235727449
19726,Zr6FeCl14,-2.063365228
19727,Tl5Se2Cl,-0.601824144
19728,Nb3TeCl7,-1.572625658
19729,NaSn2Cl5,-1.57678146
19730,Si2Cl2O3,-2.699885669
19731,Pr2NCl3,-2.434838967
19732,Nd2NCl3,-2.45141461
19733,Pd(PbCl3)2,-1.320625007
19734,SbSeCl9,-1.009507483
19735,NaLuCl4,-2.521452078
19736,ZrSnCl6,-1.905849394
19737,WS9Cl4,-0.941410648
19738,S2N2Cl,-0.160897435
19739,NaErCl4,-2.523269641
19740,Hg3TeCl4,-0.828971975
19741,Re3Te4Cl5,-0.703299997
19742,Se2NCl5,-0.475699859
19743,RuCl2O,-1.212198513
19744,OsCl2O,-1.150769063
19745,MoCl5,-1.281813717
19746,Li4NCl,-1.020914149
19747,Li5NCl2,-1.292163627
19748,SnCl2,-1.387967092
19749,Cs2PtCl4,-1.712659997
19750,Li6VCl8,-1.997624562
19751,Sn2ClF3,-2.291495644
19752,SICl7,-0.721534769
19753,CuClF10,-1.092535346
19754,Ga2CuCl8,-1.376229369
19755,Y2InCl7,-2.411343311
19756,S3N2Cl,-0.258519582
19757,Rb2PuCl5,-2.353493816
19758,K2PuCl5,-2.348739437
19759,Rb2PuCl6,-2.265376674
19760,Lu(NbCl3)6,-1.857784626
19761,LiGaCl3,-1.700862524
19762,Na2PdCl4,-1.586410087
19763,GaCuCl4,-1.300596234
19764,Rb3TlCl6,-1.849683956
19765,SbCl3F2,-1.764249754
19766,Na2TiCl4,-1.932193156
19767,CsFeCl3,-1.635820296
19768,Hf(Te2Cl3)2,-1.29598969
19769,Hf(Se2Cl3)2,-1.263155798
19770,HfCl4,-2.307427884
19771,Ta(TeCl3)2,-1.3703885
19772,NaScCl4,-2.41387649
19773,Rb4Cu5Cl9,-1.411205098
19774,Rb3Mo2Cl9,-1.765481959
19775,Tl3PdCl5,-1.18438152
19776,Rb6Cl4O,-1.954794994
19777,Pd(Se3Cl)2,-0.326923324
19778,Na2Ti3Cl8,-1.863299
19779,Re3Te8Cl3,-0.422254983
19780,Cl2O,-0.388151881
19781,Tl2WCl6,-1.324840762
19782,CuW3Cl7,-1.060306835
19783,La3Si3Cl2,-1.477612714
19784,Tl2MoCl6,-1.359906013
19785,RuS3Cl8,-0.870660315
19786,Sb4S5Cl2,-0.806423311
19787,Cs3Fe2Cl9,-1.732604938
19788,Sc7NCl12,-2.31037114
19789,Li2CrCl4,-1.772799525
19790,Sb3ClO4,-1.720235018
19791,RePCl9,-1.101097577
19792,Re2(PCl8)3,-1.116439196
19793,CsCrCl3,-1.752209316
19794,Hg2PCl2,-0.643479269
19795,Ge3Cl8,-1.274657472
19796,Nb3ClO7,-2.918903012
19797,Hf(Te4Cl3)2,-0.945405962
19798,NbTeCl9,-1.420207605
19799,HoClO,-3.516041053
19800,TlClO3,-0.849388785
19801,Lu(ClO4)3,-1.102168512
19802,Na3HoCl6,-2.359541879
19803,CsHgCl3,-1.551418011
19804,Na3TiCl6,-2.054786397
19805,SnCl4,-1.406543643
19806,Ir(Cl2F3)2,-1.394540976
19807,Re2PCl13,-1.115786973
19808,Sm2SCl4,-2.653728477
19809,CsPdCl3,-1.478086025
19810,Rb3PbCl5,-2.024278627
19811,Pr(ClO4)3,-1.115535951
19812,Er(ClO4)3,-1.092067755
19813,Tl2PdCl4,-1.166976735
19814,Nb3Cl5O2,-2.070186788
19815,SbClF10,-1.861798319
19816,NbSeCl9,-1.306970175
19817,Cs6Cl4O,-1.986109601
19818,LiNb6Cl19,-1.76461494
19819,CsPd2Cl5,-1.253214904
19820,RbCrCl3,-1.726404665
19821,PdSCl,-0.802054153
19822,RbNb4Cl11,-1.755835959
19823,Zr(Se2Cl3)2,-1.233677102
19824,Dy3S2Cl5,-2.615787578
19825,CsSn2Cl5,-1.657985032
19826,K3ErCl6,-2.489748882
19827,CsClO4,-1.224854733
19828,La5Sn3Cl,-1.112123016
19829,KGaCl4,-1.880753792
19830,Si3(Cl4O)2,-2.074478125
19831,Rb2WCl6,-1.775012534
19832,RbGaCl4,-1.89705938
19833,Cs2WCl6,-1.810961032
19834,LiClO4,-1.119735326
19835,Cs2PdCl4,-1.749907993
19836,Tl3PbCl5,-1.38970427
19837,MnTlCl3,-1.405380991
19838,TlClO4,-0.812443761
19839,HgClO3,-0.591285244
19840,GaCl3,-1.548660969
19841,NaClO2,-1.153307255
19842,CuTe2Cl,-0.415520896
19843,CsWCl6,-1.626975552
19844,CuCl2,-0.885021406
19845,Sc5NCl8,-2.307048918
19846,CuSe2Cl,-0.432174863
19847,Cl2O7,-0.446951624
19848,Nd(ClO4)3,-1.110892272
19849,Ga(SbCl)4,-0.875171714
19850,In5S5Cl,-0.952756712
19851,Zr(TeCl)6,-1.067068814
19852,Hf(TeCl)6,-1.090758757
19853,K2Ta3Cl9,-1.86852509
19854,Na3YCl6,-2.353909048
19855,K2TaCl6,-1.996936528
19856,LiClO2,-1.253413911
19857,KClO2,-1.198041176
19858,Co(ClO4)2,-0.692538272
19859,W(ClO)2,-1.722113523
19860,WCl4O,-1.381754431
19861,CuCl4,-0.438526751
19862,Na3GdCl6,-2.354547604
19863,Li6NCl3,-1.429634882
19864,H3ClO,-1.23491279
19865,H4NCl,-0.865474468
19866,Rb4Cl2O,-1.743448785
19867,Li2MgCl4,-2.17699088
19868,Cs3MnCl5,-2.063544929
19869,InTeCl,-0.873091874
19870,SbClO,-1.609067707
19871,CsCoCl3,-1.533253501
19872,VCl3O,-1.612887557
19873,SeCl,-0.489288225
19874,SbSe9Cl7,-0.543960296
19875,RbReCl4,-1.507910836
19876,RbFeCl4,-1.639172657
19877,MoCl4O,-1.323134675
19878,Li6CoCl8,-1.859550033
19879,K2PuCl6,-2.228029035
19880,CsTi2Cl7,-2.132147553
19881,NClO,-0.527576667
19882,Pb3(ClO)2,-1.579888829
19883,Li10Mg7Cl24,-2.185817641
19884,Zr6NCl15,-2.239763678
19885,Li4Mn3Cl10,-1.779898948
19886,Sb24(Cl7F17)5,-2.205044738
19887,Li5V5Cl16,-1.788309247
19888,NCl3,-0.042309055
19889,Cs2ZnCl4,-2.047499436
19890,Nb3Se5Cl7,-1.255782988
19891,SeCl4,-0.81902967
19892,Cs2DyCl5,-2.578883036
19893,FePCl8,-1.187628314
19894,VCl2O,-1.849729237
19895,YCl,-1.784808459
19896,UPCl10,-1.660580082
19897,KDy2Cl7,-2.663479458
19898,Ni(ClO4)2,-0.608683576
19899,NaMo6Cl13,-1.400397311
19900,FeTeCl7,-1.140872283
19901,Cs3V2Cl9,-2.014110387
19902,K3IrCl6,-1.743261169
19903,Hg7Cl2O3,-0.616863051
19904,W2Se17Cl12,-0.586705469
19905,Cs3Ru2Cl9,-1.603663747
19906,Cs2TlCl5,-1.770406379
19907,Cs3Mo2Cl9,-1.802234582
19908,Te2MoCl12,-1.146460929
19909,Te3MoCl16,-1.131332565
19910,TaTeCl9,-1.487686076
19911,HfNCl,-2.19465888
19912,Mo2NCl7,-1.21881499
19913,Si6Cl10O7,-2.420366738
19914,Ga2Te2Cl7,-1.276407932
19915,EuClO,-2.882403163
19916,ZrNCl,-2.090783525
19917,YbClO,-2.494014782
19918,RbClO2,-1.194947116
19919,CsClO2,-1.20600949
19920,FeClO,-1.62339503
19921,Yb4Cl6O,-3.034938867
19922,La3Si2Cl3O7,-3.474073651
19923,Sr(ClO2)2,-1.429994418
19924,OsCl4O,-1.025341668
19925,Nd3S2Cl5,-2.645764938
19926,S4N5Cl,0.068031832
19927,EuClF,-3.468304768
19928,Re2SCl12,-0.99537105
19929,Sb8Cl2O11,-1.734296148
19930,Yb(ClO4)3,-0.949991329
19931,YbClF,-3.756854381
19932,Hg6Cl3O2,-0.583985761
19933,H7ClO7,-1.132166017
19934,Hg3ClO,-0.60004896
19935,SbP(Cl2F3)2,-2.106449804
19936,Nd7(S2Cl3)3,-2.596158854
19937,Sb2ClF17,-1.949071619
19938,TbCl2F,-3.29993209
19939,SbCl(OF3)2,-1.974856692
19940,MnClO3,-0.854291155
19941,Gd3Si2Cl5O6,-3.214263789
19942,TiSCl6O,-1.672760881
19943,Pb13(Cl3O5)2,-1.556644372
19944,DySCl,-2.593254617
19945,GaRe(Cl3O)2,-1.528822344
19946,Cs3ClO,-1.641726748
19947,WCl3O,-1.489502932
19948,TlCoCl3,-1.097160281
19949,Pd(Se4Cl)2,-0.279339462
19950,CsMn4Cl9,-1.615095743
19951,CsSbCl6,-1.529895503
19952,CsReCl4,-1.533220442
19953,CsSmCl3,-2.286800536
19954,Cs2ReCl6,-1.739507838
19955,ICl,-0.45065124
19956,Cs(WCl3)3,-1.378658978
19957,KSm2Cl5,-2.310055545
19958,ReNCl4,-0.869336528
19959,Cs3Mg2Cl7,-2.287965763
19960,KTiCl3,-2.000778269
19961,Rb2ZnCl4,-2.006967923
19962,CuMo3Cl7,-1.225572338
19963,K2NbCl6,-1.984074438
19964,In5Se5Cl,-0.625554636
19965,Cs3W2Cl9,-1.690227539
19966,CsHg5Cl11,-1.162746862
19967,Mo(SeCl6)2,-0.974588705
19968,GaCl2,-1.414391462
19969,Cs2MgCl4,-2.303346887
19970,K2WCl6,-1.747355808
19971,MoCl4,-1.285582239
19972,CsLi2Cl3,-2.158580703
19973,K3InCl6,-2.015322637
19974,K2TeCl6,-1.635321476
19975,ZrCl4,-2.251208692
19976,K(WCl3)3,-1.359375486
19977,RbMnCl3,-1.815440401
19978,P3NCl12,-1.059917117
19979,Cs3Ti2Cl9,-2.215099377
19980,SbICl8,-0.943263578
19981,TeCl4,-1.081995623
19982,Zr(TeCl6)2,-1.476259924
19983,Te2WCl6,-1.034541529
19984,Cs2Ta6PbCl18,-1.786742084
19985,Cs2TaCl6,-2.064914512
19986,EuCl3,-2.284993586
19987,K2CuCl3,-1.739235413
19988,K2PrCl5,-2.541284855
19989,Nd3NCl6,-2.55548676
19990,Cs3ZnCl5,-2.093117973
19991,NbSeCl3,-1.453679293
19992,LiWCl6,-1.520905466
19993,LiTm2Cl5,-2.077999751
19994,Zr(SeCl6)2,-1.296617048
19995,Rb2NbCl6,-2.003327527
19996,W2NCl8,-1.291621076
19997,TlGaCl4,-1.549096105
19998,Cs3Li2Cl5,-2.189845093
19999,Na2UCl6,-2.157714034
20000,Cs2MoCl6,-1.846040972
20001,Nb3Se10Cl3,-0.826167793
20002,SnICl,-0.94301832
20003,Rb(WCl3)3,-1.365991066
20004,Hf(SeCl6)2,-1.316323703
20005,InGa2Cl7,-1.506410239
20006,Cs2LiCl3,-2.199164291
20007,Cs2PuCl6,-2.30357266
20008,Rb2MnCl6,-1.823365862
20009,K2HgCl4,-1.672480257
20010,CsLi3Cl4,-2.136392947
20011,K3ClO,-1.660227979
20012,Nb2Se17Cl12,-0.743754564
20013,PICl8,-0.944665022
20014,Ti(NCl)3,-1.122183896
20015,Tl10Hg3Cl16,-1.210309663
20016,Rb3YCl6,-2.496848618
20017,Tl4Pd3Cl10,-1.098107833
20018,CsTmCl3,-2.225941237
20019,Re3Se4Cl,-0.562133606
20020,Ga2NiCl8,-1.390036659
20021,Cs3Cu2Cl5,-1.676935805
20022,Cs3LaCl6,-2.552715631
20023,Cs3NdCl6,-2.515771635
20024,CsNb4Cl11,-1.76862183
20025,Os(SeCl6)2,-0.829760036
20026,La3Ge3Cl2,-1.531401726
20027,Mo6PbCl14,-1.369301097
20028,W2NCl9,-1.298273699
20029,Na3W3Cl13,-1.550685279
20030,Cs3LiCl4,-2.174697535
20031,KPb2Cl5,-1.743052863
20032,ReCl3O2,-1.49846879
20033,Re2Cl5O4,-1.582493881
20034,SmClF,-2.909150655
20035,PaCl2O,-2.970909873
20036,NaHgCl3,-1.38298772
20037,CsGaCl4,-1.932409811
20038,Cs2SnCl6,-1.917299649
20039,RhSe2Cl7,-0.836262002
20040,Pb(ClO2)2,-0.817341133
20041,Cs2SbCl6,-1.778018423
20042,Ga3Cl7,-1.459119243
20043,Te4WCl6,-0.84295882
20044,Cs2CuCl4,-1.720035243
20045,Na2ZnCl4,-1.888245347
20046,EuNa2Cl5,-2.160675285
20047,K2ZnCl4,-1.974678794
20048,MoCl2,-1.323426258
20049,K3Mo2Cl9,-1.742100864
20050,Re(Te4Cl3)2,-0.523686503
20051,Ru(SCl3)4,-0.780137033
20052,H7ClO3,-1.27873254
20053,H5ClO6,-1.060484334
20054,Eu(ClO4)3,-0.981168849
20055,SbN6Cl,-0.102555881
20056,K3TiCl6,-2.058056176
20057,KICl2,-1.373238343
20058,La3Ga4Cl,-1.072696849
20059,SiWCl2,0.790403973
20060,TeOsCl2,0.457808072
20061,OsPtCl2,0.859201475
20062,ZrTcCl,0.417344257
20063,NbRu2Cl,0.530400342
20064,Re2PCl,0.955361895
20065,ReRuCl2,1.040617728
20066,Re2CuCl,1.083570497
20067,FeTc2Cl,0.649232434
20068,VOsCl,0.649033337
20069,Cs3Sc2Cl9,-2.520873144
20070,Cs2ZrCl6,-2.390465151
20071,Pr3RuCl3,-1.655453144
20072,Rb2CuCl3,-1.73672115
20073,Mo3S7Cl4,-1.210082823
20074,UCl2O,-2.763939104
20075,H5N2Cl,0.873276494
20076,TePCl9,-1.10410547
20077,KICl4,-1.198056176
20078,Zr2Cl5,-2.061788716
20079,Ti2SCl12,-1.610408535
20080,NbClF8,-2.47640486
20081,FeSCl7,-0.9890005
20082,P6N7Cl9,-0.883687578
20083,PrIn2Cl5,-1.948444936
20084,Hf(ClO4)4,-0.983819488
20085,Gd3NCl6,-2.56054481
20086,Hf(TeCl6)2,-1.363172265
20087,Nb6InCl15,-1.623552009
20088,Re(SeCl6)2,-0.901556573
20089,Mo2Cl8O,-1.302114053
20090,Re3S4Cl,-1.017044497
20091,Ru2S4Cl13,-0.818978895
20092,Zr6NiCl15,-2.041497281
20093,RhSCl5,-0.951718745
20094,PSeCl9,-0.965351371
20095,Ta3In2Cl9,-1.532474826
20096,TeWCl9,-1.195495269
20097,Nd14Cl32O,-2.492442485
20098,KNbCl6,-1.877391963
20099,TeS7Cl2,-0.732782934
20100,Re2Cl7O3,-1.415278648
20101,YbLi3Cl6,-2.07407663
20102,Na3Sm7Cl24,-2.593581115
20103,K2NbCl3,-1.235794375
20104,K2SrCl4,-2.497443331
20105,Na3Nd5Cl15,-2.351286578
20106,Rb6Pb5Cl16,-1.863056884
20107,Li2MnCl4,-1.844948946
20108,Mn(CuCl2)2,-0.998536961
20109,LiTiCl3,-1.631583499
20110,Sb8Cl27F13,-1.533334544
20111,K2Sn5Cl12,-1.506173407
20112,Na3Nd5Cl18,-2.57284574
20113,Na3Pr5Cl18,-2.581596147
20114,Li3InCl6,-1.864626312
20115,Si3NCl9,-1.261807486
20116,NaSm2Cl6,-2.364031854
20117,NaU2Cl6,-1.923734639
20118,Rb2ZnCl3,-1.724556757
20119,Li3ErCl6,-2.338334101
20120,TlPbCl3,-1.431990104
20121,Li2FeCl4,-1.637740862
20122,ReSeCl,-0.76012432
20123,Sr18ThCl40,-2.80395676
20124,Li2UCl6,-2.13591216
20125,OsClF8,-1.712740227
20126,Nb(Cl2O)2,-1.392909935
20127,Eu2NaCl6,-2.423789751
20128,NaPr2Cl6,-2.446074908
20129,Sr4LaCl11,-2.778704048
20130,Re3(SeCl)7,-0.710299522
20131,Re3(SCl)7,-1.00222046
20132,LiMo6Cl13,-1.3925323
20133,Sb2Cl5F4,-1.857957644
20134,Yb7Cl15,-2.720239106
20135,Tl2Cl3,-1.260495418
20136,Mo3N2Cl11,-1.162965163
20137,Re(Se2Cl3)2,-0.705581127
20138,Mo2NCl8,-1.192689134
20139,La10Ga5Cl4,-1.172092342
20140,PtCl4,-0.410282494
20141,KGa2Cl7,-1.729076197
20142,Sn(PCl6)4,-1.138913772
20143,Li2VCl4,-1.8654781
20144,Ti(PCl6)4,-1.237279494
20145,Li3ScCl6,-2.285859017
20146,Li3(Nb2Cl5)8,-1.694807812
20147,Mo2Cl4O,-1.215743129
20148,HPb3ClO3,-1.511041594
20149,HClO4,-0.679714772
20150,NbCl4F,-2.073747427
20151,CuH8(ClO5)2,-1.05222274
20152,H12Cl2O13,-1.097190797
20153,H13ClO6,-1.337942032
20154,Yb6Cl13,-2.701580535
20155,SnCl8O25,-0.505593438
20156,IClO,-0.590301193
20157,SrLa2Cl8,-2.794136037
20158,ClOF3,-1.053708341
20159,TmClO,-3.54993768
20160,CsClO3,-1.28807377
20161,MgCl2O,-1.740696056
20162,NClO3,-0.725106619
20163,Rb3ClO,-1.563571667
20164,SrLaCl5,-2.789862958
20165,DyClO,-3.519966513