id,Composition,FormationEnergy
9675,Ba2H14C4O15,-1.713542648
9676,Ba14Na17CaN6,-0.297907545
9677,Ba3ZnIr2O9,-2.124380703
9678,BaSbClO2,-2.506880532
9679,BaHf(PO4)2,-3.369003729
9680,Ba2DyBiO6,-2.84240191
9681,Ba3ZnN2O,-1.208729381
9682,BaZnSO,-2.121994101
9683,Ba2CaTeO6,-2.801700026
9684,Ba2Tl2CuO6,-1.792544802
9685,BaBiIO2,-2.119244204
9686,Ba2LaSbO6,-3.047836465
9687,Ba2CdReO6,-2.482143922
9688,BaBiClO2,-2.415008512
9689,Ba2CuBrO2,-2.283140064
9690,Ba2LaNbO6,-3.402125038
9691,Ba5Si(Br3O2)2,-2.750975625
9692,Ba7Fe6CuF34,-3.380377319
9693,BaBi6(PO5)4,-2.408458057
9694,Ba3Ga2(Ge2O7)2,-2.5424624
9695,BaNaFe2F9,-3.183081718
9696,BaPb2IF5,-2.856143455
9697,Tb2Ba3(PS4)4,-1.603077173
9698,Ba3SrIr2O9,-2.335979964
9699,Ba5Os3ClO15,-2.403618755
9700,BaLiCoF6,-3.146939949
9701,Ba3Ta2CdO9,-3.186714767
9702,Ba3CaSb2O9,-2.7775384
9703,Ba3LiIr2O9,-2.195771653
9704,Ba3MgIr2O9,-2.332082295
9705,BaMnFeF7,-3.292337054
9706,Ba5Si(Cl3O2)2,-3.143943839
9707,Ba5Re3NO18,-2.589190178
9708,Ba2InBrO3,-2.50082293
9709,Ba3Bi2(PO4)4,-2.908224018
9710,Ba2Zn2ClF7,-3.268840845
9711,BaSi2CuO6,-2.866173805
9712,Ba2UCu2S5,-1.698351487
9713,Ba4Fe2S4I5,-1.618884498
9714,Ba(Mo3O5)2,-1.884175382
9715,BaU(SiO4)2,-3.466495277
9716,BaCu(SeO3)2,-1.719879709
9717,BaNb7(P2O11)3,-2.98932428
9718,BaH4(CO3)2,-1.838817441
9719,BaLa(BiS3)2,-1.589370526
9720,BaHg2(ClO)2,-1.659829854
9721,BaNb10SiO19,-2.883375501
9722,BaLiZr2F11,-3.999005635
9723,BaNb2Bi2O9,-2.664637243
9724,BaSnHgS4,-1.236387108
9725,Ba2Zn3(PO3)10,-2.705022498
9726,Ba3In2Br2O5,-2.408735247
9727,BaZr(PO4)2,-3.305525514
9728,Ba3NiIr2O9,-2.016150133
9729,Ba5Fe5O14,-2.293330389
9730,BaNd2PtO5,-2.988104151
9731,BaSb2Xe5F22,-1.937670094
9732,Ba5Re3ClO15,-2.805803741
9733,Ba3LuIr2O9,-2.572772569
9734,EuBa6(ClF6)2,-3.978454316
9735,Ba5Re3BrO15,-2.766826873
9736,Ba3Bi(ClO)3,-2.722137128
9737,BaNaCr2F9,-3.353478987
9738,BaPrMn2O5,-2.765129845
9739,BaPr2Ti3O10,-3.660526787
9740,Ba8V7O22,-2.901687237
9741,Ba2Nb2TeO10,-2.873500211
9742,Ba2Hg3(PdO2)7,-1.210026716
9743,Ba2CaUO6,-3.564822695
9744,K4Ba(GeO3)3,-2.30229969
9745,Ba3Tl2Cl2O5,-2.200608283
9746,BaCuTe2O7,-1.823226861
9747,KBa4Sb3O,-1.39415838
9748,Ba2Cu(PO3)6,-2.75512357
9749,K4Ba(VS4)2,-1.630152149
9750,Ba4Nb2(OF4)3,-3.817840929
9751,Ba2InClO3,-2.658043066
9752,K4Ba(SiO3)3,-2.903842984
9753,Ba9Sc2(SiO4)6,-3.4586082
9754,Cs2Ba2(CO3)3,-2.473015271
9755,Ba2ZnSi2O7,-3.159255932
9756,Ba2PrIrO6,-2.683272331
9757,Ba4Ti2PtO10,-3.020489263
9758,BaSbSe2F,-1.808363293
9759,Ba2CoReO6,-2.474997767
9760,Ba5Cu4ClF17,-3.096056153
9761,BaSrTa2O7,-3.508043845
9762,Ba3Ho2(PS4)4,-1.597010504
9763,RbBa4Sb3O,-1.375006822
9764,Ba21Ge2O5,-1.048066668
9765,Ba4Na(BiO4)3,-2.19853425
9766,Ba5Ta2Cl2O9,-3.32133976
9767,BaSr4U3O14,-3.653873477
9768,Ba2Ru7O18,-1.767520015
9769,Ba3Cu2(ClO2)2,-2.245734953
9770,Ba9Cu7Cl2O15,-1.928072215
9771,Ba3Ta6Si4O23,-3.170246826
9772,Ba3In2Cl2O5,-2.59110999
9773,BaUTiO6,-3.635352159
9774,BaBi4(ClO3)2,-1.8378993
9775,K2Ba(NO2)4,-1.493937322
9776,BaZr4(PO4)6,-3.279215535
9777,KBa2(PO3)5,-2.935837068
9778,BaZn2Si2O7,-2.867861003
9779,BaY2Si3O10,-3.609716659
9780,Ba2V(CuS2)3,-1.391692148
9781,Ba3Er2(PS4)4,-1.593321251
9782,Ba3Zn5In2O11,-2.196124298
9783,BaCaCrF7,-3.783223962
9784,Ba2Ni7F18,-2.596693023
9785,Ba2Ti9O20,-3.531586558
9786,BaNaZrF7,-3.949620071
9787,Ba2TeP2O9,-2.870616474
9788,Ba3Dy2(PS4)4,-1.600438106
9789,Ba8Ce3(SbO6)4,-3.006929428
9790,BaCaSiO4,-3.364155437
9791,Ba3LaIr2O9,-2.502881307
9792,Ba4Os6ClO18,-2.106873528
9793,BaUO4,-3.681749971
9794,Ba5P3BrO12,-3.259258753
9795,BaBi4(BrO3)2,-1.698700177
9796,Ba2CuIO2,-2.173349232
9797,BaTlVO4,-2.53361337
9798,BaNaZr2F11,-3.985712076
9799,Ba2TiOF6,-4.007851972
9800,BaZnSiO4,-2.954137986
9801,BaCa(GaO2)4,-2.647929784
9802,Ba2Nd2Si4O13,-3.528512723
9803,BaNdMn2O5,-2.775656488
9804,Ba2FeO4,-2.472081533
9805,Ba2NiMoO6,-2.433704623
9806,BaCr2O4,-2.597694812
9807,Yb8Ba5Ni4O21,-2.577837586
9808,Ba(RuO2)6,-1.600645551
9809,Ba2FeCoF9,-3.36872013
9810,BaDy2MnO5,-3.311338187
9811,Ba6(NiO3)5,-1.845564852
9812,Ba21Si2O5,-1.006394528
9813,Ba4PrMn3O12,-2.63231021
9814,Ba2YFe3O8,-2.606478166
9815,BaLiCrF6,-3.501643531
9816,BaFe12O19,-1.930713795
9817,Ba2V2ZnO8,-2.757798376
9818,Ba2Ni2ClF7,-3.018244996
9819,Ba3Fe2Br2O5,-2.425707308
9820,Ba3Fe2Cl2O5,-2.596669911
9821,Ba3V4PbO14,-2.747986778
9822,BaFe2(SeO3)4,-1.735917551
9823,BaFeCuF7,-2.923397806
9824,Ba4CeMn3O12,-2.783681842
9825,Ba2Mn2Bi2O,-1.049965711
9826,BaVClO3,-2.777035066
9827,BaYFe4O7,-2.207710414
9828,BaV2TeO8,-2.413885982
9829,Ba5Li2(WO5)3,-2.784022265
9830,BaVOF4,-3.464611114
9831,Ba4Fe3(S3F2)2,-2.344057821
9832,Ba3Na2Cr4F20,-3.453379163
9833,BaV2(CuO4)2,-2.127890829
9834,Ba2V4Cd3O15,-2.423252837
9835,CsBaCr3F12,-3.296789725
9836,Ba2Co2ClF7,-3.145807426
9837,Ba7Na5Li3N3,-0.265190293
9838,Ba3WCl2O5,-2.906612393
9839,Ba12Na15Li8N6,-0.279512111
9840,Ba(Si3N4)2,-1.325998189
9841,Ba2Nd7Si11N23,-1.455122624
9842,Ba6NaCu3Te14,-0.991828151
9843,BaCeI4,-1.529139709
9844,BaLi2(MgGe)2,-0.431028191
9845,Ba3Zr6BeCl18,-2.273626129
9846,BaCa4(CuN2)2,-0.764238563
9847,Ba2P7Cl,-0.876525716
9848,Ba6Zn(InCl10)2,-2.407000773
9849,Ba38Na58Li26N,-0.015328647
9850,Ba2GaGeN,-0.661643823
9851,Ba4W(N2Cl)2,-1.623320879
9852,Ba2Ge(TeSe)2,-1.214984113
9853,Rb2BaNb2Se11,-0.894518699
9854,Ba3Na2(CN2)4,-0.872349039
9855,Ba2Li3TaN4,-0.995586875
9856,Eu2BaMn2O7,-2.722460755
9857,Ba2Mn2Si2O9,-2.951607114
9858,Ba6Nb4S13O3,-2.20223419
9859,Ba6V4S11O5,-2.090907812
9860,Ba3Nb2CoO9,-3.040507506
9861,BaH2(CO2)2,-1.768867824
9862,BaCaCo4O7,-1.93711338
9863,Ba11In6O3,-1.122985754
9864,BaCa4(CoN2)2,-0.781837214
9865,BaNd2CoS5,-2.021648162
9866,Ba2GdSbO6,-1.056789347
9867,BaZn2(PO4)2,-2.743646442
9868,Ba3Nb6(Si2O13)2,-3.258808075
9869,Ba2Pd(OF)2,-2.834919805
9870,BaSi4CuO10,-3.024929128
9871,BaNiF6,-2.600005443
9872,Ba2PrCu3O8,-2.029231759
9873,Ba3Ta6(Si2O13)2,-3.451076785
9874,Ba2DySbO6,-3.10918669
9875,Ba2NbCrO6,-3.063190754
9876,BaCdGaF7,-3.231633092
9877,Ba2DyCu3O7,-2.195851679
9878,Ba2TmCu3O7,-2.202418069
9879,BaMnGaF7,-3.371513435
9880,BaY2CoO5,-3.162547735
9881,Ba4In6O13,-2.329081814
9882,BaFe2(P2O7)2,-2.691551471
9883,Ba2Ta6Te2O21,-3.094184165
9884,Ba(H2O3)2,-1.388673115
9885,Ba(HO2)2,-1.607294636
9886,Ba2LiReO6,-2.756928664
9887,Ba4Na(SbO4)3,-2.55529361
9888,Ba5Os3NO18,-2.229305289
9889,Ba2Ti(GeO4)2,-2.909310946
9890,BaCaRu2,0.836258383
9891,Yb2BaCuO5,-2.62916226
9892,BaNdFe2O5,-2.639162072
9893,Ba3MnNb2O9,-3.141522778
9894,Ba2InIrO6,-2.201187547
9895,EuBaFe2O5,-2.312001962
9896,BaCa2(PN2)6,-1.073535458
9897,Ba8Nb6CoO24,-3.190828543
9898,Ba6Ga2Co11O26,-1.899250801
9899,Ba2Tl(NO2)5,-1.274292516
9900,BaH2O3,-1.530263054
9901,BaH2Cl2O,-2.14094069
9902,BaBi2(MoO4)4,-2.16926071
9903,BaH5ClO3,-1.824745201
9904,BaH5BrO3,-1.723312093
9905,Ba2YReO6,-3.04619032
9906,BaHBrO,-2.212686724
9907,BaMg2FeH8,-0.46943006
9908,BaHIO,-2.078260042
9909,BaMg2H8Os,-0.506444303
9910,BaMg2H8Ru,-0.513940952
9911,BaH2C2O5,-1.976542712
9912,BaCa(CO3)2,-2.66759833
9913,Ba14Na14LiN6,-0.309260741
9914,Ba14Na11Li5N6,-0.251022563
9915,BaY(CoO2)4,-2.038309694
9916,Ba2Co4ClO7,-1.882814082
9917,BaNd2ZnO5,-3.152606708
9918,Ba3Co10O17,-1.685781071
9919,Ba3MgNb2O9,-3.281574156
9920,Ba2LuSbO6,-0.906693218
9921,Ba2Na(CuO2)3,-1.795525461
9922,BaMg(CO3)2,-2.575100595
9923,Ba5Mn3ClO12,-2.50004784
9924,YbBa4(CuO3)3,-2.275223009
9925,BaNa4Cu3F12,-2.658255005
9926,BaCu2(PO4)2,-2.385095563
9927,Ba2CuHgO4,-1.964391843
9928,BaZn(SeO3)2,-1.509105952
9929,BaNd2Ti3O10,-3.666185098
9930,K2Ba(Ge4O9)2,-2.279645629
9931,BaDy2ZnO5,-3.277714843
9932,Ba14Na14CaN6,-0.32953437
9933,Ba4LiW2N7,-1.063870405
9934,Ba8Zr3(SbO6)4,-3.005087658
9935,Ba2Dy(CuO2)4,-2.055563765
9936,Ba5Si8O21,-3.385147542
9937,Ba2CaWN4,-1.154794896
9938,Ba3Bi6PbSe13,-0.865264255
9939,BaCdP2O7,-2.813832008
9940,Ba4Cu3Ge20,-0.275219979
9941,Ba2Tm(CuO2)4,-2.060322122
9942,Ba8Bi4O17,-2.353972403
9943,Ba2CaOsO6,-2.698884795
9944,Ba(IrO3)2,-1.71026329
9945,Ba2Bi6O11,-1.722554084
9946,Ba5Bi5O13,-2.233808148
9947,Ba9(LaS6)2,-2.417650491
9948,Ba2U2O3,-2.137689996
9949,BaGa2(SiO4)2,-2.994688482
9950,BaLa2MnS5,-2.220436505
9951,YbBaSi4N7,-1.279140979
9952,Ba2Pr(CuO2)4,-2.019090619
9953,Ba2NaReO6,-2.706345805
9954,Ba3In4(CuO4)3,-1.971914156
9955,Ba(GaO2)2,-2.625676569
9956,Ba14Pd3Ir8O33,-2.099587212
9957,KBaPO4,-3.060266453
9958,BaU(SeO4)2,-2.098834223
9959,Ba7U7O24,-3.606605835
9960,Ba6Fe14Cu11S27,-0.967206075
9961,Ba32Sb7Pb25O96,-2.24178329
9962,Ba7Ca2Mn5O20,-2.610924573
9963,BaH4(ClO)2,-1.888088959
9964,Ba8Mn8O21,-2.502719259
9965,K4Ba2N7O16,-1.486380442
9966,BaRe2H2O9,-2.294333812
9967,Ba2Zn(HO)6,-1.199080916
9968,BaCaCO3,-2.116016868
9969,BaH4(BrO)2,-1.659525479
9970,BaSn2(HO2)2,-1.950982584
9971,Ba5Re3O16,-2.701783351
9972,BaH4(CO2)3,-1.62081158
9973,BaSeO3,-2.330033186
9974,BaH2(SO4)2,-2.215327851
9975,Ba2Nd2Fe4O11,-2.650116498
9976,Yb2Ba(MoO4)4,-2.444212359
9977,Ba2VI5O17,-1.548897201
9978,Ba(H9O5)2,-0.922710408
9979,BaZn2H16O11,-1.032444349
9980,YbBa2TaO6,-3.299709744
9981,BaSi2(H3O4)2,-2.309275198
9982,BaH6C4O7,-1.435787948
9983,Ba3Nb2ZnO9,-3.083543833
9984,Ba2YNbO6,-3.46229326
9985,Ba(CuO)2,-1.622989798
9986,Ba3In2(HO)12,-1.895827101
9987,BaRe2(H2O3)4,-1.928781887
9988,Ba3(Mo9O14)2,-1.816358263
9989,Ba2Na2O3,-2.161356819
9990,Ba2Sb2O7,-2.47880521
9991,BaLu2O4,-3.76981446
9992,Cs2Ba2O3,-2.061901786
9993,Ba(NaSi2)2,-0.167585858
9994,Ba3(BrO)2,-2.605776566
9995,BaLa2O4,-3.591865167
9996,BaTm2O4,-3.709581504
9997,Ba3(ClO)2,-2.850504747
9998,BaTi8O16,-3.50023546
9999,Ba5Bi3O11,-2.324257009
10000,BaSrO2,-2.910045791
10001,Ba2Nb8O11,-2.59664441
10002,BaNdO3,-3.00896632
10003,Ba4OF6,-3.922218842
10004,Ba3GeO5,-2.859075468
10005,Yb2BaO4,-2.770696523
10006,BaTaO3,-3.283449133
10007,Ba4IrO6,-2.490883233
10008,BaTl2O4,-1.682162018
10009,Ba3SiO,-1.28177196
10010,BaTeO4,-2.265140237
10011,Ba2IrO4,-2.256496505
10012,Cs2BaO2,-1.815181862
10013,BaNa6O4,-1.686812243
10014,BaNb3NO7,-2.855058712
10015,BaNa2O2,-1.944262666
10016,Ba2Ti6N2O11,-3.208189887
10017,Ba6ZrO8,-3.070519397
10018,Ba4Bi3O11,-2.185751443
10019,Ba3Zr2O7,-3.534477285
10020,BaMgO2,-2.914288867
10021,BaNa4O3,-1.742649083
10022,BaTi6O12,-3.483504119
10023,Ba8In8O19,-2.397294787
10024,Ba2Tl(HO)7,-1.795031572
10025,BaZnGeO4,-2.438685875
10026,Ba4In2O7,-2.487524201
10027,Ba6Bi6O17,-2.218281794
10028,Ba8In6O17,-2.426414767
10029,Ba(PdO2)2,-1.522408059
10030,Ba3Sr4O7,-2.943834083
10031,BaNb5O8,-2.806259446
10032,Ba8Bi10O27,-2.101850905
10033,Ba8Fe8O21,-2.338576133
10034,Ba5Mn5O14,-2.500320528
10035,Ba8Mn8O23,-2.491430979
10036,Ba2Sb2O5,-2.502609072
10037,BaRhF6,-2.808397285
10038,Ba5Nb5O14,-3.045029497
10039,Ba10Cu5O17,-2.220700438
10040,Ba3Fe3O8,-2.327955926
10041,BaV8O21,-2.4180356
10042,BaV8O16,-2.586498688
10043,Ba2La2O5,-3.377685884
10044,Ba2Ti11O24,-3.501719571
10045,Ba4Sn3O10,-2.652684236
10046,Ba4Ta2O9,-3.334088839
10047,BaTa6O16,-3.400025141
10048,Ba4ZrO6,-3.167959617
10049,BaTa4O11,-3.414326682
10050,BaV10O17,-2.594725945
10051,Ba2Ta2O7,-3.42125092
10052,Ba2Ce2O5,-3.352446258
10053,BaLi2NiO3,-1.880662294
10054,Ba2Zr7O16,-3.733732605
10055,Ba2MnO4,-2.58228326
10056,BaGa4O7,-2.499185054
10057,Ba3Sn2O7,-2.682835037
10058,Ba3Ga4O9,-2.696871124
10059,Ba4Ti3O10,-3.446551816
10060,Ba3Y2O6,-3.273908478
10061,Ba5(Ga3O7)2,-2.659628675
10062,Ba4Tm6O13,-3.622166901
10063,Ba8LiTa7O24,-3.31740341
10064,Ba4Lu6O13,-3.646617972
10065,Ba2P6O17,-2.864762202
10066,Ba2Cu2O5,-1.932557843
10067,Ba6Ti7(Sb3O14)3,-2.77613618
10068,Ba6Ta9Ti7O42,-3.499273205
10069,Ba8Ta7O24,-3.362443189
10070,Ba10LiW7O30,-2.712866759
10071,Ba4Nb3O12,-3.145621473
10072,Ba10Li2Bi4O21,-2.381349903
10073,Ba4LiBi3O11,-2.226594153
10074,Ba3SiO5,-3.250680383
10075,BaLi4NiO4,-1.943859385
10076,Ba14Na8CaN6,-0.38407988
10077,Ba2Ga6O11,-2.541683947
10078,BaCe2O4,-3.484284924
10079,BaLi4O3,-2.174630991
10080,Ba2MgO3,-2.884016689
10081,Ba4Y2O7,-3.185584293
10082,Ba8Nb7O24,-3.218956625
10083,Ba(MgSi)2,-0.33526464
10084,Ba4Li(SbO4)3,-2.571593834
10085,Yb4Ba3O9,-2.811501914
10086,Ba(MgP)2,-0.936003529
10087,BaTiF6,-3.996537654
10088,Ba2ZrO4,-3.444149902
10089,BaCaGaF7,-3.755935571
10090,Ba3Co(CN)3,-0.700835689
10091,Ba2InBiS5,-1.618353358
10092,YbBaCdSb2,-0.88470512
10093,Ba8Bi4H2O,-1.152206781
10094,Ba5Cd2Sb5F,-1.255418925
10095,CsBa2Cr2F11,-3.539246291
10096,K2BaCdSb2,-0.635936565
10097,RbBaTaS4,-1.861132949
10098,BaLa2PtO5,-3.046675643
10099,BaCuP2O7,-2.660175233
10100,Ba2LiFe2N3,-0.593808798
10101,Ba3NaNbO6,-2.990916615
10102,Ba3NaTaO6,-3.094676369
10103,Ba2SrIrO6,-2.468219889
10104,BaCuSeF,-2.127847606
10105,Ba2PrPtO6,-2.574871185
10106,BaDy2PdO5,-3.079184621
10107,Ba3NaIrO6,-2.384810763
10108,BaPr2PdO5,-2.964951245
10109,Ba6Tl2NCl,-0.746286496
10110,Ba6In2NF,-0.972905178
10111,BaMgCuF7,-3.110775316
10112,BaMgTiF7,-3.868687453
10113,BaMgBiF7,-3.507260381
10114,BaMgSbF7,-3.465148769
10115,BaMgSnF7,-3.42537961
10116,BaTiZnF7,-3.50469886
10117,BaZnSnF7,-3.070028897
10118,BaZnCuF7,-2.754744653
10119,BaZnBiF7,-3.149733112
10120,BaZnSbF7,-3.102873331
10121,BaCaTiF7,-3.956734874
10122,BaCaSnF7,-3.523720805
10123,BaCaSbF7,-3.558001087
10124,BaCaBiF7,-3.609912495
10125,Ba2YMn3O8,-2.686064163
10126,Ba2YCr3O8,-2.767646349
10127,Ba2YV3O8,-2.915823021
10128,BaMgMoF7,-3.557652161
10129,BaMgVF7,-3.714986084
10130,BaMgCrF7,-3.653912109
10131,BaMgMnF7,-3.538321316
10132,BaMgFeF7,-3.545910595
10133,BaMgCoF7,-3.330496788
10134,Ba2YTi3O7,-3.186830492
10135,BaMgWF7,-3.437068779
10136,BaMgNiF7,-3.139736655
10137,BaZnMoF7,-3.193770054
10138,BaMnZnF7,-3.174667823
10139,BaVZnF7,-3.352169294
10140,BaZnCrF7,-3.290478457
10141,BaZnCoF7,-2.969012168
10142,BaCaMoF7,-3.65059678
10143,BaZnWF7,-3.073193441
10144,BaZnNiF7,-2.76971554
10145,BaCaVF7,-3.811946501
10146,BaCaFeF7,-3.642952507
10147,BaCaMnF7,-3.63280106
10148,BaCaWF7,-3.529562145
10149,BaCaCoF7,-3.420533124
10150,BaCaNiF7,-3.219661058
10151,BaTl(SbO3)2,-1.744561168
10152,BaTl(SnO3)2,-1.66686564
10153,Ba2YCo3O8,-2.28376399
10154,BaTl(BiO3)2,-1.559767956
10155,Ba2YSn3O7,-2.342742141
10156,BaTi2TlO6,-2.632427876
10157,BaCa(WO2)4,-1.589450639
10158,BaYCu4O7,-1.747859377
10159,BaYTi4O7,-3.081740432
10160,BaCa2(CoN2)2,-0.24610561
10161,Ba2YNi3O8,-1.947148409
10162,Ba2YW3O8,-2.284489231
10163,BaZnFeF7,-3.182398365
10164,BaYSn4O7,-2.190786845
10165,Ba2YMo3O8,-2.530441839
10166,BaTlCuO4,-1.48032574
10167,Ba3Y4(NiO5)3,-2.445031196
10168,Ba3Y5(NiO5)3,-2.771188556
10169,Ba2Fe2CuF14,-2.88043352
10170,Ba3Y4(CoO5)3,-2.678005619
10171,Ba2YMn3O7,-2.658807635
10172,Ba2YCo3O7,-2.332430615
10173,Ba2YCr3O7,-2.696932636
10174,Ba2Cu2HgO6,-1.51320186
10175,Ba2YV3O7,-2.726945248
10176,BaYMn4O7,-2.47421346
10177,BaYNi4O7,-1.666631357
10178,BaYCr4O7,-2.312347454
10179,BaYV4O7,-2.479180635
10180,Ba2Cr2CuF14,-3.053429147
10181,BaYW4O7,-1.472343556
10182,Ba2YNi3O7,-2.044082395
10183,Ba2TlMo2O7,-1.979495265
10184,Ba2Mn2TlO7,-1.947639282
10185,Ba2YW3O7,-2.071579349
10186,Ba3Y5(CoO5)3,-2.946939703
10187,BaCa(CoN2)2,0.083849321
10188,Ba2CaCr2F14,-3.399984901
10189,Ba3Y5(CuO5)3,-2.808569324
10190,Ba2Ti2CuF14,-3.604202416
10191,Ba2CaCu3F14,-2.89885793
10192,Ba2MgCu3F14,-2.806080186
10193,Ba2ZnCu3F14,-2.626496016
10194,Ba2CuSn2F14,-3.116632372
10195,Ba2Mn2CuF14,-2.976875542
10196,Ba2CuMo2F14,-3.114080925
10197,Ba2TlSb2O7,-1.977125237
10198,Ba2Ti2TlO7,-2.604112934
10199,Ba2TlSn2O7,-1.992955757
10200,Ba2TlBi2O7,-1.868219027
10201,Ba2Tl2Sb3O10,-1.819224206
10202,Ba2Tl2Bi3O10,-1.724223538
10203,Ba2Tl2Sn3O10,-1.923842676
10204,BaMn2TlO6,-1.655126407
10205,Ba2Ti3Tl2O10,-2.778386354
10206,Ba2TlFe2O7,-1.813458597
10207,Ba2TlW2O7,-1.884875106
10208,Ba2TlCo2O7,-1.653577562
10209,Ba2TlV2O7,-2.144430491
10210,Ba2TlNi2O7,-1.326047446
10211,Ba2Tl2Co3O10,-1.431472627
10212,Ba2Tl2Cr3O10,-1.778814756
10213,Ba2Tl2Fe3O10,-1.589981618
10214,Ba2Tl2Mo3O10,-1.853986464
10215,Ba2Tl2Ni3O10,-1.073907697
10216,Ba2Tl2W3O10,-1.848387548
10217,Ba2Mn3Tl2O10,-1.871885746
10218,BaTlV2O6,-2.041527596
10219,BaTl(CoO3)2,-1.318434976
10220,BaTl(NiO3)2,-0.882090616
10221,BaTl(WO3)2,-1.797015203
10222,BaTi4ZnO8,-2.868460867
10223,BaMgTi4O8,-3.092007309
10224,BaMg(BiO2)4,-1.865204826
10225,BaMg(SbO2)4,-1.912043174
10226,BaZn(BiO2)4,-1.660655576
10227,BaZn(CuO2)4,-1.179312502
10228,BaCaTi4O8,-3.172849559
10229,BaZn(SbO2)4,-1.708552662
10230,BaCa(CuO2)4,-1.44441319
10231,BaTl(MoO3)2,-1.806476108
10232,BaCa(SbO2)4,-2.029757253
10233,BaCa(BiO2)4,-1.980622108
10234,Ba2YTi3O8,-3.411845584
10235,BaCa(SnO2)4,-2.166479378
10236,Ba2YSn3O8,-2.497079531
10237,Ba2YBi3O8,-2.281121424
10238,BaYCu2O5,-2.255619832
10239,BaTaCuO5,-2.415107642
10240,BaReCuO5,-1.814454406
10241,BaCuSbO5,-1.679630783
10242,BaCuWO5,-1.860089073
10243,BaMgV4O8,-2.530571029
10244,BaMgCr4O8,-2.200420484
10245,BaMgMn4O8,-2.148832702
10246,BaV4ZnO8,-2.316153081
10247,BaMn4ZnO8,-1.945479516
10248,BaZn(FeO2)4,-1.960048493
10249,BaMg(FeO2)4,-2.17470413
10250,BaCaV4O8,-2.618737909
10251,BaCa(CoO2)4,-1.808610641
10252,BaCaCr4O8,-2.279687463
10253,BaMg(WO2)4,-1.517500705
10254,BaZnCr4O8,-1.988983176
10255,BaZn(MoO2)4,-1.625488514
10256,Ba2YCu2F11,-3.329013806
10257,BaMg(CoO2)4,-1.728165824
10258,BaMg(MoO2)4,-1.837158304
10259,BaCaMn4O8,-2.226814143
10260,Ba2YTi2F11,-3.770512569
10261,Ba2YSn2F11,-3.585429026
10262,BaZn(NiO2)4,-1.045464676
10263,BaCa(NiO2)4,-1.337537669
10264,BaCa(MoO2)4,-1.898598343
10265,BaZn(WO2)4,-1.303275126
10266,Ba2YV2F11,-3.739340428
10267,Ba2YNi2F11,-3.423959012
10268,Ba2YMn2F11,-3.752237307
10269,Ba2YCr2F11,-3.697651882
10270,Ba2YFe2F11,-3.660204101
10271,Ba2YCo2F11,-3.52512428
10272,Ba2YW2F11,-3.225265768
10273,BeC2,0.847386096
10274,LiBe,0.16082705
10275,Ba2NdNb(CuO4)2,-2.687779923
10276,BeSiP2,0.561764413
10277,Be,0.039314403
10278,BeSe,-0.302265367
10279,BeSnP2,-0.224552642
10280,Be2Si,0.230534173
10281,Be2Zn,0.27828463
10282,BeGeP2,-0.274672318
10283,Be3N2,-1.025007155
10284,CsBeF3,-2.76946152
10285,Mg(BeP)2,-0.480981264
10286,HfBe,-0.08325209
10287,BaGaSnH,-0.535184348
10288,BaGaGeH,-0.527260872
10289,Ba4GaN3O,-1.072039137
10290,Ba4Mg(SiN3)2,-1.092729417
10291,Ba3Ca2(SiN3)2,-1.175872081
10292,Ba3MgGeN4,-0.725119232
10293,Ba3NaY3(Si3O10)2,-3.509406681
10294,Ba3P6(N4O3)2,-1.902628588
10295,Ba9Y2(SiO4)6,-3.460241914
10296,BaCaP2O7,-3.233812337
10297,BaY4Si5O17,-3.639522221
10298,BaLi2Mg(PO4)2,-3.032719682
10299,BaGe(S2O7)3,-2.081819775
10300,BaMg2Si2O7,-3.315884461
10301,BaNa2Mg(PO4)2,-2.975569687
10302,BaSr2Mg(SiO4)2,-3.39543228
10303,Cs2BaP2O7,-2.910134935
10304,Cs2Ba3(P2O7)2,-3.063578239
10305,CsBaLiP2O7,-2.959911291
10306,EuBaNa(SiO3)3,-3.225461037
10307,ZrBeSi,-0.749068748
10308,Ba2NbFeO6,-2.955257301
10309,Ba2Y(CuO2)3,-2.141904691
10310,Ba2CuC(NO)2,-1.483517751
10311,BaNb2(FeO3)4,-2.160168852
10312,BaNb2Fe2O9,-2.659826843
10313,Ba4NbFeO8,-2.95093935
10314,Ba4Cu3PbO9,-2.005130061
10315,Be5Fe,-0.100059753
10316,BeNi,-0.467491915
10317,Ba2PrNbO6,-3.369561326
10318,KBaBiTeO6,-2.092989979
10319,BaCe2MnS5,-2.110029654
10320,Ba2PrSbO6,-3.004819596
10321,BaPr2FeS5,-2.056401993
10322,BaZnCO3F2,-2.723912578
10323,MnBe2,-0.258289901
10324,BeMo3,0.014518605
10325,Be2Nb3,-0.124601543
10326,Be3Nb,-0.234109662
10327,BePd,-0.58577805
10328,Be2Re,-0.391634271
10329,BeRh,-0.62501165
10330,ScBe5,-0.20773362
10331,Ta2Be,-0.164334268
10332,TiBe,-0.143947088
10333,TiBe12,-0.071204962
10334,Be2V,-0.227475433
10335,Be2W,-0.309555032
10336,ZrBe5,-0.255833907
10337,UBe13,-0.066876062
10338,Mg(BeN)2,-1.206957694
10339,Ca(BeN)2,-1.263339906
10340,Sr(BeN)2,-1.212992001
10341,K2BaCu(NO2)6,-1.280106623
10342,TbBa2IrO6,-2.781033541
10343,ZrBe2,-0.16908983
10344,HfBeSi,-0.65885455
10345,TbBe13,-0.194784897
10346,Ba2HoNbO6,-3.48400029
10347,Ti2Be17,-0.209759255
10348,Be12Pd,-0.074663911
10349,Ba2TmRuO6,-2.890162641
10350,YbBa2RuO6,-2.675973363
10351,BaBe2Si2O7,-3.32326256
10352,Ba3CaRu2O9,-2.475021403
10353,Ba3NbGa3(SiO7)2,-3.039410787
10354,Ba2LaRuO6,-2.794816293
10355,Ba2PrRuO6,-2.751642348
10356,Ba2HoTaO6,-3.608414728
10357,BePd2,-0.511723103
10358,BePd3,-0.403162265
10359,BaZnSnS4,-1.423223253
10360,Be13Sb,0.149068368
10361,BaNa(PO3)3,-2.889222984
10362,BaNaNd(SiO3)3,-3.356988346
10363,BaCdGeS4,-1.390596551
10364,Ba2SmReO6,-3.000713507
10365,TbBa2ReO6,-3.048965342
10366,Ba2HoReO6,-3.067797009
10367,Ba2TmReO6,-3.08747699
10368,Ba2NdSbO6,-3.024180965